/*--------------------------------*- C++ -*----------------------------------*\
| =========                 |                                                 |
| \\      /  F ield         | OpenFOAM: The Open Source CFD Toolbox           |
|  \\    /   O peration     | Version:  2112                                  |
|   \\  /    A nd           | Website:  www.openfoam.com                      |
|    \\/     M anipulation  |                                                 |
\*---------------------------------------------------------------------------*/
FoamFile
{
    version     2.0;
    format      ascii;
    arch        "LSB;label=32;scalar=64";
    class       volVectorField;
    location    "0.0048";
    object      U_LES;
}
// * * * * * * * * * * * * * * * * * * * * * * * * * * * * * * * * * * * * * // 
 
dimensions      [0 1 -1 0 0 0 0];
 
internalField   nonuniform List<vector> 
13597
(
( 17.300263653321068 1.6710363634927003 0.0281800404872482 )
( 17.29969337240068 1.723835589880027 0.0228399115873076 )
( 17.310337654596598 1.8317579880164048 0.0122086494701168 )
( 17.33098660346666 1.968791654967897 8.337739029535115e-06 )
( 17.351149006637797 2.081866383803668 -0.0081624310097554 )
( 17.365615013406345 2.171762205844867 -0.0129318754733197 )
( 17.383256292323313 2.258910806197553 -0.0159226177888202 )
( 17.404039873419734 2.3492081704164747 -0.0169338348380043 )
( 17.42713744347277 2.4372083240516704 -0.0164917235745491 )
( 17.45133375928512 2.5236115672444037 -0.0146059237321692 )
( 17.476286183768977 2.6165343289585645 -0.0111435796935057 )
( 17.505226736429353 2.70621588485781 -0.0075835821480051 )
( 17.535702560558406 2.792632151435005 -0.002914710239502 )
( 17.565716064116614 2.8829588672334308 0.0031831047745968 )
( 17.595448766196117 2.974634560607379 0.0093728525673801 )
( 17.62746211104459 3.064763874050254 0.015876302745579 )
( 17.662218874476896 3.1504872172008533 0.0216936347867696 )
( 17.69676121075543 3.235045448192976 0.0271113692594412 )
( 17.731892175550666 3.3228868872721398 0.0322759964011497 )
( 17.179101760211896 1.7048860273890152 0.0230931061295918 )
( 17.16326577274308 1.7737944601139644 0.0147131970648924 )
( 17.15622872836012 1.9159477346240987 -0.0014920926729658 )
( 17.152798157145863 2.074171565141961 -0.0177646938631032 )
( 17.1480075660179 2.191969818102433 -0.026428772880287 )
( 17.141487033457185 2.2979327594598096 -0.031716211097506 )
( 17.137817791324434 2.4009025525537298 -0.0347278102842763 )
( 17.133816096211902 2.504952532467282 -0.0355521860350382 )
( 17.131868799848856 2.6075825201507543 -0.0344309232446419 )
( 17.128743859753996 2.707003092093444 -0.0313702061205375 )
( 17.123192772445208 2.8133648071298447 -0.0266738689554029 )
( 17.115636591677415 2.9229503789516653 -0.0219784499044073 )
( 17.104242776371738 3.030992992549457 -0.016511771146938 )
( 17.09452477473667 3.140293813170613 -0.0100514754025813 )
( 17.087332490039756 3.2468953595504897 -0.0044588271017933 )
( 17.08286158907857 3.348259063307371 0.0003072234843062 )
( 17.079701209639367 3.441496223995088 0.0039901070270479 )
( 17.075107218012608 3.536675257111276 0.0067296778759906 )
( 17.076031609050673 3.63203610234692 0.0086799114943512 )
( 17.057576348209015 1.734885753988947 0.0148339812085511 )
( 17.022629623151104 1.8158895865929077 0.002942704791989 )
( 16.99210909126032 1.9793451578425671 -0.0168058531875791 )
( 16.960218213932304 2.149846382355627 -0.0339918986089933 )
( 16.92637211961684 2.2701446137633554 -0.0415396959077522 )
( 16.895763527526196 2.3848386987275654 -0.0451716629669198 )
( 16.865881300293495 2.49795883960033 -0.0461306906259252 )
( 16.82896279183665 2.607240861023276 -0.0455945992997588 )
( 16.792687509482786 2.717084856661081 -0.0431359815349164 )
( 16.75570687352017 2.832175579882818 -0.0386788625705005 )
( 16.714125363542866 2.949713579120882 -0.0333846709293622 )
( 16.670563757283944 3.073732732974256 -0.0285115409975893 )
( 16.626394170291913 3.200644556702648 -0.0239460697085283 )
( 16.585740502986045 3.321655923519648 -0.0199505729631319 )
( 16.55088543235372 3.4330595498276075 -0.0176292039115377 )
( 16.521779826608025 3.533164864017336 -0.0167350479693435 )
( 16.492752031169484 3.623839610674788 -0.0170561274608925 )
( 16.46344892891013 3.7156950931712793 -0.0184739101137896 )
( 16.4435017867022 3.812822827642483 -0.020540797702911 )
( 16.929500906740135 1.7554047168246172 0.0038641490030742 )
( 16.87389863937477 1.8455468195582587 -0.0110598314051945 )
( 16.81885096352714 2.0169033702011947 -0.0309568454396037 )
( 16.75666186650657 2.1908014695892817 -0.0459453419434343 )
( 16.69002510938732 2.3140345592693814 -0.0518109442535677 )
( 16.627208793666508 2.428989918270017 -0.0534996220299177 )
( 16.55987284852294 2.545314665872298 -0.0524890062822943 )
( 16.486512500202824 2.6592856569284864 -0.0501357398295246 )
( 16.41802661997794 2.7747900470044318 -0.046792595596146 )
( 16.350540125048806 2.897268789953686 -0.0430434417177284 )
( 16.277416602372966 3.0251579281345697 -0.0393937374415754 )
( 16.2096709221015 3.158808878464598 -0.0368334982437337 )
( 16.146970170195754 3.2938843939853943 -0.0356720086446595 )
( 16.085603608296292 3.423426999803245 -0.0363706999981085 )
( 16.02942257764178 3.536137034611856 -0.0388578894376522 )
( 15.979674819728793 3.63468104297432 -0.042008551359328 )
( 15.933437306946354 3.725434617805072 -0.0460970252700151 )
( 15.885451129253727 3.818346037501135 -0.0512770997780694 )
( 15.841905274950795 3.923882192346938 -0.0569621062728584 )
( 16.799435792968836 1.764339149918804 -0.0088342965418397 )
( 16.725736053665845 1.8640726493821047 -0.0244585091958859 )
( 16.641967393957028 2.039638570190421 -0.0427436916758652 )
( 16.5455271195025 2.2071584056556985 -0.0545774667362968 )
( 16.448362139346024 2.3274820923885007 -0.0581376847456907 )
( 16.353163621108145 2.440765298708302 -0.0586147242957631 )
( 16.251148670144374 2.556878432148693 -0.0567652552731497 )
( 16.148414926116313 2.672665078907252 -0.0540795542423137 )
( 16.052615058213053 2.7891543089962294 -0.0521455576168453 )
( 15.956805413236273 2.9143949695935825 -0.0514759797964926 )
( 15.85821797422727 3.0532334201782767 -0.0518007164726756 )
( 15.766147456594869 3.19771995587609 -0.0535574922546132 )
( 15.679668226713185 3.339759273359136 -0.0573595131319921 )
( 15.595173142075772 3.474014748702359 -0.0631975656644838 )
( 15.51544967971112 3.585921070501926 -0.0700273075247439 )
( 15.440762328266317 3.6885009597245912 -0.0763048672548396 )
( 15.37173571360008 3.7882384292800735 -0.0823842018820922 )
( 15.304523579416706 3.889673971841388 -0.0886978005426697 )
( 15.238383730114194 4.006022405081262 -0.0950740404579366 )
( 16.67006000024801 1.7605051318872973 -0.0210887645518571 )
( 16.574615137249914 1.866679152234648 -0.0366194957655526 )
( 16.457256601111173 2.045891437919608 -0.052217302940068 )
( 16.33059669027435 2.2051128002408564 -0.0606625435762692 )
( 16.20845433846029 2.3195215776921843 -0.062375546748431 )
( 16.088169566254535 2.430325975510476 -0.0622783377342762 )
( 15.96430964765012 2.5429607084721653 -0.0616332021461538 )
( 15.837676612755274 2.657291911950546 -0.0614401424310922 )
( 15.710388635862962 2.7752545464517406 -0.0631971453942261 )
( 15.584213782525106 2.909804271002465 -0.0664207629241015 )
( 15.464145874000309 3.056279790575273 -0.0707801820330901 )
( 15.345997324246143 3.205741043544508 -0.0771361011316613 )
( 15.235696966307508 3.35463846437836 -0.0845722775892148 )
( 15.132413637525907 3.492340269012015 -0.0924054734650299 )
( 15.03166418544929 3.608798941038545 -0.1001865084538762 )
( 14.940614137425884 3.713348124832179 -0.1065718424115299 )
( 14.852875415287794 3.816154126709432 -0.1120358992128931 )
( 14.766167688901447 3.922080977217558 -0.1168763591729822 )
( 14.6808545847114 4.044413908810146 -0.1207125054645257 )
( 16.533136753469837 1.7460236243868872 -0.0322878801901442 )
( 16.41582572357381 1.856735789874095 -0.0469249352525607 )
( 16.271635725684284 2.033847348779492 -0.0598276364782004 )
( 16.12041279795953 2.182283772610201 -0.065781644663996 )
( 15.97684307739549 2.2904944617835628 -0.0675887362371365 )
( 15.832473761464772 2.39604863931814 -0.0688114796322854 )
( 15.686436020349683 2.507472409916978 -0.0703643618119554 )
( 15.539129326575289 2.6234329635650093 -0.0737154767702494 )
( 15.387627354587448 2.7430983187037743 -0.0791681898146795 )
( 15.24369958535496 2.8832006629935947 -0.0852832280324737 )
( 15.102820655547406 3.0361364181136503 -0.092328891374757 )
( 14.95994215116553 3.1926480954973293 -0.1007987716848848 )
( 14.829371733274272 3.343906299938082 -0.1085704611522306 )
( 14.707337777289007 3.4814521943524146 -0.1154212533817255 )
( 14.587727761711273 3.604048709425251 -0.1214156451867759 )
( 14.477500260322586 3.7084946076739342 -0.125408075997566 )
( 14.37214626809032 3.810757931463922 -0.1280631797553877 )
( 14.265457845255472 3.922970445078218 -0.1299258354427963 )
( 14.160138957139624 4.050360149046766 -0.130680442998983 )
( 16.400155614973084 1.723369133973883 -0.0426693143765728 )
( 16.261892663076292 1.831590412466784 -0.0555861781109275 )
( 16.09456186119213 2.0016141630175355 -0.0668830288667687 )
( 15.923172889990832 2.1404070344829003 -0.0722008938618348 )
( 15.758568124386326 2.2441631563373465 -0.0750857631429336 )
( 15.59248313265596 2.3491865539719834 -0.078265554867572 )
( 15.425165752164803 2.461129663390456 -0.0822870936341867 )
( 15.260936355481723 2.5748309084379826 -0.0884630638811328 )
( 15.089853379186469 2.696224795109824 -0.0963467986499328 )
( 14.926965649385464 2.843421397184945 -0.1040324954602605 )
( 14.76378993250492 3.0024492585774856 -0.1116520763385651 )
( 14.60239016803366 3.1654717735319986 -0.1189868558891722 )
( 14.452234737196166 3.3195520508263514 -0.1251233764439658 )
( 14.30709544862873 3.4527495878823347 -0.1298063395599483 )
( 14.1737899435142 3.570325478710353 -0.1327773430238059 )
( 14.044824185255145 3.6761753543377247 -0.1341819051354734 )
( 13.919374036401967 3.7832913706138944 -0.1342323324336221 )
( 13.794196126349554 3.902725279599745 -0.1330602298070961 )
( 13.670189717275298 4.036257299684136 -0.1309546199803743 )
( 16.272538996814653 1.6864581326177537 -0.0517108420951951 )
( 16.113970719994022 1.7869397709400872 -0.0638773022975013 )
( 15.925376335692368 1.9508768562097905 -0.0742505843073672 )
( 15.738034154884687 2.0826879218579677 -0.0799262339434764 )
( 15.553375812758915 2.1857188922305864 -0.0842875769417903 )
( 15.37214664375712 2.2888173438966515 -0.0894211013851414 )
( 15.1903968676611 2.397271312781584 -0.0953880999248701 )
( 15.010223796360687 2.5161784289811204 -0.1026725917041649 )
( 14.824420917055193 2.644874237661381 -0.1109524018374052 )
( 14.633921319377157 2.7921797504415604 -0.1192448184951721 )
( 14.44896813724838 2.955649484146148 -0.1257402170770726 )
( 14.273003900787124 3.121002770882221 -0.1303754900084334 )
( 14.099296951218111 3.2757141625053894 -0.1344059160497237 )
( 13.9341663204105 3.408914798143163 -0.1365517748926422 )
( 13.786817359771224 3.523111569763058 -0.1368128986574701 )
( 13.639345679379858 3.63184200253288 -0.1363083535983341 )
( 13.493039776030294 3.7416808156061223 -0.1342453029161421 )
( 13.347310181596631 3.863903110539748 -0.1304458789454997 )
( 13.200339394231056 4.003023630321428 -0.1254526449171717 )
( 16.14535628212859 1.643402731327799 -0.0600772309770263 )
( 15.969893365396342 1.7427435000515905 -0.0723412906095901 )
( 15.764603582956603 1.899165842797066 -0.082042112126474 )
( 15.563045927488249 2.0197117217637914 -0.0882661359671708 )
( 15.364639873282382 2.122311408945716 -0.0942363807973947 )
( 15.171079084180285 2.2197020833657093 -0.1009989338310489 )
( 14.972840062314749 2.321991574718837 -0.1079174883733423 )
( 14.770800909088296 2.442637865859784 -0.1154418745380795 )
( 14.571907721992376 2.574140446399767 -0.1225066175142243 )
( 14.365120693474612 2.72450545645908 -0.1289617598022537 )
( 14.161166952773767 2.89519002054215 -0.1340847830893646 )
( 13.966468295783097 3.064898790211465 -0.1370721801535911 )
( 13.774958856968686 3.216550049200664 -0.1385621555032291 )
( 13.595282290240553 3.35034165162278 -0.138336650717078 )
( 13.426361667716767 3.4651488956646994 -0.136731823392831 )
( 13.256496098480232 3.572487847264485 -0.1338529518566643 )
( 13.085257976878644 3.68227442964408 -0.1294450446369382 )
( 12.91587571958863 3.805497259047725 -0.1242116846214015 )
( 12.746650684546983 3.9508875415329694 -0.1186566732725181 )
( 16.027861449463995 1.597755715115026 -0.0684941482721494 )
( 15.840963640935804 1.6968405298821845 -0.0801477746151043 )
( 15.615615286607088 1.843501191675845 -0.0897422610785548 )
( 15.404698260286978 1.9523645720143048 -0.0969795831187041 )
( 15.196093867497202 2.0492007766925653 -0.103930365167947 )
( 14.986010787707553 2.143476282045163 -0.1114096737384925 )
( 14.772866737104788 2.2410572555906594 -0.1189374929556805 )
( 14.557407566220116 2.356564589124161 -0.1257832859549065 )
( 14.34114155941107 2.493709232649445 -0.1308861258479137 )
( 14.121066567466576 2.64956152402578 -0.1350043001904277 )
( 13.89891892394416 2.821568973481625 -0.1381517187450412 )
( 13.67900930807455 2.997134879939863 -0.139373497037859 )
( 13.47407866982882 3.147337370834302 -0.1387705245404491 )
( 13.278651442684044 3.280516582126819 -0.1366463559925919 )
( 13.083034280660954 3.395968639788021 -0.1333716044799349 )
( 12.886488251100095 3.5006684164386463 -0.1289467572604334 )
( 12.691229793262004 3.611267433511567 -0.1243156574883842 )
( 12.502217497908964 3.738066773675046 -0.1198309258038322 )
( 12.310326272070755 3.890934350492895 -0.1147670234054449 )
( 15.91618099419366 1.5454257135307243 -0.0772352707075429 )
( 15.71652142040746 1.6423488723787956 -0.0881195290284188 )
( 15.475540313147798 1.781893772532968 -0.0979782310231649 )
( 15.256991168086364 1.879404081103629 -0.1060647355629765 )
( 15.03765116715367 1.966429462903725 -0.1131603915283905 )
( 14.813284618208892 2.059016690869389 -0.1205433155681074 )
( 14.591959016413846 2.1625705758884486 -0.1275163998277684 )
( 14.363972848439158 2.280147605866436 -0.1327633706075469 )
( 14.130882812158768 2.419720987098956 -0.1360390415363069 )
( 13.893435890314205 2.575153029973425 -0.1384582982238345 )
( 13.653528280260833 2.7436620604790085 -0.1394440086329242 )
( 13.413578760001666 2.9148055540373585 -0.138626742039094 )
( 13.185899657501183 3.067907028124269 -0.1366645233870464 )
( 12.966497360940055 3.206365398975114 -0.1335136078089685 )
( 12.745542031386847 3.3204166352735247 -0.1294836915980665 )
( 12.5292467789256 3.4206080414602966 -0.1253007970761611 )
( 12.317623046502456 3.53196501612668 -0.1215595991887673 )
( 12.107843383802228 3.668194464912014 -0.1172228147618183 )
( 11.892534985885058 3.831146798515516 -0.1103532722846625 )
( 15.810265582793884 1.48225422281846 -0.0859694921310862 )
( 15.599735125978436 1.5765087290563362 -0.0968999036501229 )
( 15.3516866460912 1.7119493548760345 -0.1066901848988064 )
( 15.120912502252915 1.8052303124844569 -0.1148052447014122 )
( 14.892558422419928 1.8921435451285649 -0.1214057293491951 )
( 14.659594051033544 1.9843123065294956 -0.1273371112262683 )
( 14.427273557725462 2.0880852582329403 -0.1327745046667866 )
( 14.183235133846562 2.203318386194167 -0.136387695735011 )
( 13.933053380034575 2.337919692932561 -0.1388234012743346 )
( 13.681157938359265 2.49623876621728 -0.1400437383679926 )
( 13.420560916724025 2.6696750346137224 -0.1392190170896482 )
( 13.161781378234071 2.8365571668588365 -0.1373216768119248 )
( 12.90820688230876 2.9881765787630545 -0.1341408775590631 )
( 12.659308099308731 3.1242808537024147 -0.1305889238923955 )
( 12.4223045635216 3.2312598010324174 -0.1273769115589337 )
( 12.194599212843062 3.33214644252409 -0.1234829486870558 )
( 11.963914241044945 3.4490797281002563 -0.1185968026648824 )
( 11.728211763978834 3.591856379225688 -0.1120824607276737 )
( 11.48215318291677 3.769830232179758 -0.1018053527968762 )
( 15.71458127254495 1.4099252749006874 -0.0946125149032654 )
( 15.499705900570492 1.5031877604652766 -0.1051919844397443 )
( 15.241195132372148 1.6361562821463294 -0.1142707495038333 )
( 14.999357133327427 1.7278318235754366 -0.121612678191718 )
( 14.761565317595837 1.8145592283207732 -0.1273957918653014 )
( 14.523202024451006 1.9032264795772724 -0.1320059967329251 )
( 14.278599835206537 2.0039887905475946 -0.1358208368156517 )
( 14.02540593714949 2.11858778565053 -0.1381526599213497 )
( 13.758186770039682 2.250111116274704 -0.1394841428110027 )
( 13.484980731417524 2.408324420096948 -0.1396400585237464 )
( 13.202582726147677 2.5840751772178736 -0.1381007126424156 )
( 12.91826310778464 2.755253597648972 -0.1357333933429764 )
( 12.64254512526153 2.907679622696372 -0.1321432916549184 )
( 12.37728809300948 3.0332723911324964 -0.1287489345512365 )
( 12.124519683700717 3.135066426623124 -0.125644588548263 )
( 11.874636086996436 3.2428201601562177 -0.1204924103749183 )
( 11.619654989811693 3.371794490518193 -0.1135385614069992 )
( 11.35332065770765 3.5171644053079505 -0.1041614879520751 )
( 11.067203629332289 3.7016608550442633 -0.0913166091120713 )
( 15.6288461326889 1.3387474945842632 -0.1026753326637393 )
( 15.405241648184417 1.4319517095921868 -0.1119864487932567 )
( 15.127631423334147 1.562363282927655 -0.1204551371470823 )
( 14.880815343280355 1.646145408872509 -0.1265578706708914 )
( 14.63974345182382 1.728446460825775 -0.131682512272363 )
( 14.39614251197616 1.816089725513276 -0.1355978565151046 )
( 14.13963414486993 1.913952835181592 -0.1379002753283708 )
( 13.871319270637104 2.0295624368568785 -0.1390584276116473 )
( 13.59186396649915 2.160101694121858 -0.1392230710170028 )
( 13.299788823503052 2.313084140363096 -0.1387370518058968 )
( 12.992310327481976 2.4892054647478665 -0.137233486460381 )
( 12.68178914936214 2.6600448609535943 -0.134198133748964 )
( 12.383062107492387 2.813300986700554 -0.130496759952875 )
( 12.106415751211308 2.9347449838715307 -0.1270569362349521 )
( 11.83912349184969 3.036125935625704 -0.1222702119708051 )
( 11.565813471857515 3.1483084133707657 -0.1155138707645763 )
( 11.278652062920598 3.282948080214036 -0.1068093109496499 )
( 10.973960748637133 3.4408257286027863 -0.0953648846070484 )
( 10.65867097412432 3.6450401065473392 -0.0820215496344464 )
( 15.54988877492577 1.2706031944492655 -0.1095799814233207 )
( 15.317896117785953 1.3614064126688206 -0.1177965841369648 )
( 15.028946347967892 1.4865704118963472 -0.1251917984607579 )
( 14.776692064401876 1.5615923104851075 -0.1301588371338 )
( 14.531651388316163 1.6368298649970976 -0.1344610532925585 )
( 14.279662759674045 1.7296688927552772 -0.1375158265521691 )
( 14.012601870125508 1.822935494903795 -0.1388646653028384 )
( 13.726956301140651 1.931054500656318 -0.1387886217804816 )
( 13.430745336451045 2.064761853334819 -0.1383392482939135 )
( 13.120576650816565 2.2138816052064496 -0.1378582338637859 )
( 12.78450753040914 2.3928454210607177 -0.1361424773228588 )
( 12.446665452766156 2.5667472415023527 -0.1324128501581932 )
( 12.13678184835348 2.711343032730063 -0.1283734769572269 )
( 11.85183295842596 2.828917203315571 -0.1236837892279763 )
( 11.566695539079769 2.9347706243811307 -0.1172392991007138 )
( 11.266601575493857 3.051109723766461 -0.1095774377514792 )
( 10.94290550473965 3.189299722781528 -0.0985019220250917 )
( 10.60092109477164 3.364667253807568 -0.087046242243216 )
( 10.278754319725753 3.609264340684179 -0.0758896963637994 )
( 15.479142592629287 1.2031143156896444 -0.1142232626493414 )
( 15.236262569114484 1.2872608165431636 -0.1224364327895856 )
( 14.941329543680157 1.410463522439608 -0.1286875063891268 )
( 14.68868264755543 1.4824330882887802 -0.1324989924101182 )
( 14.435983151238522 1.5536938203744932 -0.1355117124327591 )
( 14.169658828428874 1.6427615742865902 -0.1373246957361545 )
( 13.890611738034517 1.728853575419815 -0.137881936235498 )
( 13.598429571320407 1.8352459367065164 -0.1374972944917851 )
( 13.283612330318755 1.9698896701097173 -0.1372870888722921 )
( 12.948827330112245 2.111868135541431 -0.1367148330639986 )
( 12.599690589191145 2.2851753820878407 -0.1344043601885422 )
( 12.241745200608444 2.470265690910588 -0.1301993120283936 )
( 11.917515284316297 2.6116173354650103 -0.1251086328030981 )
( 11.615126706183004 2.7213342148341053 -0.1190095343015526 )
( 11.301754055510145 2.8313809553261486 -0.1122868542065689 )
( 10.964514919334237 2.9479191439088206 -0.1034962402239783 )
( 10.608894624767329 3.0963384180703435 -0.0924553313234431 )
( 10.254394390580954 3.297346211465005 -0.0832301619190911 )
( 9.944920308660318 3.5913045558860714 -0.0727668017412795 )
( 15.41168657953664 1.134869426990489 -0.1180468949003416 )
( 15.161916084177708 1.213205171402857 -0.1252384628168306 )
( 14.861532617951644 1.33030003733844 -0.1305442554776619 )
( 14.60929846344956 1.3994980455516557 -0.1333675922935417 )
( 14.349734814667944 1.473003606798311 -0.1351538577414024 )
( 14.070243841586583 1.55729440336891 -0.1363691642905225 )
( 13.783066326751367 1.632804354196444 -0.1364872848609755 )
( 13.478319437881735 1.7401547772214363 -0.1360814952460839 )
( 13.143352829604474 1.8762681307902465 -0.1362015309897991 )
( 12.78929995197374 2.019170782801695 -0.1350276389663727 )
( 12.420292769517852 2.181505849792195 -0.131726314935613 )
( 12.047535276403424 2.351398529859774 -0.1268751150264685 )
( 11.708006433877337 2.4949338191695003 -0.1210905853437553 )
( 11.378922932905658 2.6107384199524555 -0.11440753274813 )
( 11.035654582143405 2.7144993912295834 -0.1074862126253365 )
( 10.670825288051692 2.833837469913599 -0.0990628021910337 )
( 10.291992868971292 2.9963692216275937 -0.0897046812230308 )
( 9.943926760829628 3.238806802224822 -0.0819740124510712 )
( 9.626661352823229 3.5935381033642315 -0.071074061557251 )
( 15.351622835272767 1.0642724291554886 -0.1215103082359814 )
( 15.09747663259279 1.137140914599555 -0.1272068267560026 )
( 14.78915044464556 1.2440927040361474 -0.1313821641633029 )
( 14.53563497089711 1.314283476201321 -0.1331224777420113 )
( 14.26862060652808 1.3856200946771318 -0.1338180604824222 )
( 13.97649484292766 1.467377679676983 -0.1350482085743279 )
( 13.688256993335417 1.5437081975508982 -0.1353809172153826 )
( 13.369456886237389 1.6410256343539933 -0.1346990831929703 )
( 13.012293835409256 1.7740800953591354 -0.134761049584559 )
( 12.636627858326056 1.9214405899714757 -0.1329259554113881 )
( 12.241416347962735 2.0817730115345374 -0.1287240274839701 )
( 11.861887710367428 2.237416099110652 -0.1240801915627225 )
( 11.501958198695965 2.3717870532988576 -0.1183756652138199 )
( 11.142223213018356 2.4900458409134107 -0.1105866718621651 )
( 10.779436144982752 2.5975197462764195 -0.1024586581432455 )
( 10.396149379670732 2.729037507261741 -0.0944676377132612 )
( 10.00325175722078 2.913529068827464 -0.0870869635652857 )
( 9.652057506060322 3.1937528527054773 -0.0802461160083965 )
( 9.242818691184324 3.5620880535834423 -0.0709556721016447 )
( 15.302292452453752 0.9934563517673394 -0.1232774052875579 )
( 15.038406791439051 1.0567215542787658 -0.1276965536679812 )
( 14.723557484538391 1.1575889505504109 -0.1310773163425548 )
( 14.465766172155735 1.227579892900254 -0.1320959074130885 )
( 14.192181790111707 1.2982501513608524 -0.1322281620535284 )
( 13.89054439000394 1.3816833314873291 -0.1331017165080406 )
( 13.590475963493263 1.455930442604528 -0.1332140207528714 )
( 13.264889919748114 1.5436010344147957 -0.1326615595561755 )
( 12.896040011898409 1.6675376165051374 -0.1325782560165388 )
( 12.498040360680209 1.8075967776548236 -0.1305400727805939 )
( 12.082023080190954 1.971433349459006 -0.126326628155017 )
( 11.688251141827523 2.1299504857966274 -0.1220294496819992 )
( 11.303572572371795 2.254834121446274 -0.1160709330368191 )
( 10.92172268381863 2.3646009204100875 -0.107983304733413 )
( 10.531146277518369 2.487823161721209 -0.0982973472478402 )
( 10.130555775778603 2.6321243928541738 -0.0893778639047881 )
( 9.737647644911132 2.839825303077285 -0.0844005529689774 )
( 9.327414473152338 3.1499407177970227 -0.0776678728061233 )
( 8.750007121817758 3.467130991639185 -0.0701185301872667 )
( 15.255349921562344 0.9178226729394616 -0.1239001957382566 )
( 14.98769223829093 0.9802807140826152 -0.1269789277594584 )
( 14.671144940543266 1.0754172429692013 -0.1292225006841446 )
( 14.404404045033704 1.1357364512641692 -0.1297441975606975 )
( 14.124021006053663 1.2077244057129992 -0.1299903322563504 )
( 13.81606511582932 1.2951959625866525 -0.1307305281523163 )
( 13.502019525401083 1.3628437581392865 -0.1304447577652001 )
( 13.17037062317604 1.4430642419006885 -0.1304748210239095 )
( 12.78234292214156 1.5632061380451034 -0.1300135471350813 )
( 12.3663016162655 1.6994259088001888 -0.1276614079145255 )
( 11.93439486475264 1.8569108798025649 -0.124257707398212 )
( 11.51203926401965 2.013383896552266 -0.1193021908011998 )
( 11.113474491849203 2.1424413540154426 -0.112588376545113 )
( 10.724319783382652 2.2497075570852445 -0.1052186815905745 )
( 10.307361695787538 2.3783786173892394 -0.0966776604896046 )
( 9.880768332225683 2.535697979487471 -0.0900162482809783 )
( 9.478898694829043 2.7631530793333057 -0.0838808981462688 )
( 8.975166705075727 3.0817921851096424 -0.076761835140159 )
( 8.140564627957863 3.2916311686648454 -0.06957148998221 )
( 15.210654936739026 0.8413053942196381 -0.1234174802737522 )
( 14.94273487752338 0.9056128540045154 -0.1256204478067246 )
( 14.623136007109512 0.998526554073873 -0.1268716773082632 )
( 14.352115069479469 1.0546536519456913 -0.127091524910926 )
( 14.062038496747885 1.1220046014745246 -0.1274487945956217 )
( 13.740695366723209 1.1972357342472026 -0.1276119623699647 )
( 13.416772110565446 1.2627706754944488 -0.1274689552388595 )
( 13.078771001129562 1.3392103586970634 -0.1281345541056005 )
( 12.665073625379412 1.45520212924237 -0.1274090152293212 )
( 12.23092850561864 1.5948589702450482 -0.1250598344155183 )
( 11.795260442472232 1.7446179166856877 -0.12213007538007 )
( 11.36033540959135 1.8996991844165951 -0.1161305489111724 )
( 10.945321650981414 2.034772229629373 -0.1090855977238906 )
( 10.52920936739464 2.138478805163322 -0.1017630948249374 )
( 10.099927990029071 2.262666844741684 -0.0946050893608135 )
( 9.658501786190635 2.4322770551456547 -0.0900743535545555 )
( 9.197017294389171 2.6822793657061097 -0.0841847663470082 )
( 8.621948086782982 2.9973916222334074 -0.0796286900369895 )
( 7.369458047097036 3.002700250195696 -0.0685696178585437 )
( 15.169553625971009 0.7730658666269191 -0.1219263883891499 )
( 14.8979587856406 0.8324254015734152 -0.1238332059265566 )
( 14.576483239810988 0.9215542861705608 -0.1246345210690527 )
( 14.304997600113024 0.9778923986794152 -0.124568398896867 )
( 14.005102709402838 1.0379114901413746 -0.1242582630556409 )
( 13.67711908671578 1.1017350579363403 -0.1241713690404556 )
( 13.34395688923803 1.170961678636563 -0.1253351769479071 )
( 12.98768284421896 1.2513392880485434 -0.1261062299070948 )
( 12.554841799446232 1.3556422806482094 -0.1249967676005157 )
( 12.09872822864667 1.4913192175223968 -0.1228662334612684 )
( 11.656069804473862 1.6333041739439462 -0.1189927763523972 )
( 11.221474631219344 1.7731249579498776 -0.1133714893927681 )
( 10.790036382030657 1.9029486707787449 -0.1070577339174248 )
( 10.345433942219977 2.013200364767279 -0.0990608146779757 )
( 9.89497923527099 2.139157743027501 -0.0904528478341165 )
( 9.436234575953575 2.318843555930703 -0.0851753427575036 )
( 8.89676162243112 2.5818850048592803 -0.0815554565901735 )
( 8.12230048144244 2.8260542686479044 -0.0765538628178997 )
( 6.613472005828927 2.6764047177886154 -0.0630833508378045 )
( 15.13605241440521 0.7034221252173204 -0.1195492289934613 )
( 14.86000364337287 0.7609913563456021 -0.1211788088039821 )
( 14.531793251966782 0.8460218130429387 -0.1218291749630601 )
( 14.25788533663861 0.8962038556209186 -0.121492328523167 )
( 13.95201108435946 0.9557222772740523 -0.120659602036229 )
( 13.623620093864442 1.0223795607206931 -0.1213174328061889 )
( 13.286695985800993 1.0898507393302546 -0.1238539626240658 )
( 12.908140069304473 1.163883853613933 -0.1244408816991514 )
( 12.463474647455415 1.2628538010577868 -0.1233072139855206 )
( 11.998611492550872 1.3925081926382965 -0.1213095304744961 )
( 11.537676627776458 1.5276082201399617 -0.1168975921536418 )
( 11.079326271326204 1.650754844773202 -0.1110897558430024 )
( 10.628744269620478 1.7665596692789505 -0.1056084056477691 )
( 10.167737089836598 1.878347435415638 -0.0990280487732699 )
( 9.70064377681983 2.014165103688855 -0.0906544058457918 )
( 9.2058441118126 2.217437874386374 -0.0856954369731259 )
( 8.604069803288672 2.4732019981622835 -0.0802602401609134 )
( 7.572404463175155 2.585147478155592 -0.0706626608952968 )
( 5.958391953089121 2.362333399783753 -0.058463132294331 )
( 15.108547126257758 0.631037888739413 -0.1167236659410244 )
( 14.832269594612312 0.6895400226930068 -0.1176944571163722 )
( 14.495419565705271 0.7725551169782154 -0.1181728959397064 )
( 14.2140095176121 0.8167293381581914 -0.1177519179477119 )
( 13.901615306547988 0.8714531231199812 -0.1174493310863486 )
( 13.569203073941493 0.9367329876982522 -0.1190676056023776 )
( 13.226445743275464 0.9915552734676202 -0.1214479462077948 )
( 12.835491256242868 1.0617668897899997 -0.1220382752696624 )
( 12.388972805355657 1.1697387029864108 -0.1214721706709765 )
( 11.916748955408092 1.2934025012031016 -0.1199188455375724 )
( 11.432227684089494 1.4244557498474828 -0.116350580355321 )
( 10.950137669779176 1.5337847958730684 -0.1096428459172472 )
( 10.48136586524558 1.6372295080236574 -0.1046033349147217 )
( 9.993416925528054 1.7470162510064375 -0.0993440888733585 )
( 9.510057803701878 1.887604853097569 -0.0928953353639309 )
( 8.959749326212146 2.103240048787755 -0.0892045457039653 )
( 8.278601248903811 2.33211608558995 -0.0822688380114691 )
( 7.1070715404641005 2.344446534806861 -0.0682411703490978 )
( 5.35120302427423 2.043031345854124 -0.0532931880893925 )
( 15.084361262632822 0.5685210270414798 -0.1139343425027259 )
( 14.806628074347998 0.6221079652378132 -0.114493565628958 )