/*--------------------------------*- C++ -*----------------------------------*\
| =========                 |                                                 |
| \\      /  F ield         | OpenFOAM: The Open Source CFD Toolbox           |
|  \\    /   O peration     | Version:  2112                                  |
|   \\  /    A nd           | Website:  www.openfoam.com                      |
|    \\/     M anipulation  |                                                 |
\*---------------------------------------------------------------------------*/
FoamFile
{
    version     2.0;
    format      ascii;
    arch        "LSB;label=32;scalar=64";
    class       volSymmTensorField;
    location    "0.0071";
    object      tauij_LES;
}
// * * * * * * * * * * * * * * * * * * * * * * * * * * * * * * * * * * * * * // 
 
dimensions      [0 2 -2 0 0 0 0];
 
internalField   nonuniform List<symmTensor> 
13597
(
( 0.232802975181256 0.0426438629793202 -0.0201573419026461 0.100543980149096 -0.0036304693211937 0.0835341695100925 )
( 0.2362336865011621 0.0435463630283136 -0.0180738437873244 0.10137058338208 -0.003544825410326 0.0919996064297736 )
( 0.2433398965966219 0.0448786175149081 -0.012932643399841 0.1029511935276397 -0.0039016915460158 0.1087057566443188 )
( 0.2515407515273835 0.0473997887459472 -0.0048621455449702 0.1057694900601192 -0.0050200405153914 0.1325508111360104 )
( 0.2588433108636525 0.0502656326799633 0.00272616819038 0.1081653049624187 -0.0062636029994736 0.1523569100052779 )
( 0.2658327005670904 0.0524619945315118 0.0078180464925875 0.1097188582682545 -0.0068856052723316 0.1650766645362113 )
( 0.2715573821671224 0.0552852196159244 0.0124726891019984 0.1116471631918116 -0.007291855344945 0.1739832851907612 )
( 0.2781849731362041 0.0588240999231577 0.0172922565745753 0.1128173066490546 -0.0075987281669111 0.1807550496310072 )
( 0.2851459379291566 0.0627013405703817 0.02107264886011 0.1136994085010114 -0.007949193296945 0.1842507884201895 )
( 0.2910638410816164 0.0674359774451863 0.0234729105831611 0.1145423184958575 -0.0079183105464164 0.1843481759898401 )
( 0.298381752587686 0.0731961193247739 0.0246516254402142 0.1147763304931572 -0.0073147163807078 0.182713499783059 )
( 0.3052020578172541 0.0795459001324385 0.0248031813033955 0.1150574686354697 -0.0072215302128584 0.179899747346319 )
( 0.31255506082159 0.0862232734938108 0.0241726248388083 0.1148791829655355 -0.0072346409476985 0.1751578539139495 )
( 0.3205775452228168 0.0934834559077092 0.0220296108851266 0.1144415530416814 -0.0074907667136909 0.1689743027639559 )
( 0.3276757744416534 0.1006368979871739 0.0186192007771475 0.113847971431773 -0.0077155051323227 0.1618754382166823 )
( 0.3360404885746102 0.1078114205626052 0.0149216084803379 0.1133736219483345 -0.0081298257463317 0.1549633236074002 )
( 0.3451246591346659 0.1152249655364627 0.0120743160983584 0.1123947501332944 -0.0086558309047375 0.1487988765972247 )
( 0.3541926678136905 0.1214429058868737 0.0093504240243335 0.1100054681266995 -0.0089921506146237 0.1420895567627652 )
( 0.3628368066224497 0.1274288967632769 0.0057302596533329 0.1080426278492093 -0.0100917842821751 0.1355766464268403 )
( 0.2428497171425722 0.0491609419068874 -0.0262931587657094 0.1000935762647837 -0.0003129286352089 0.1215164995346181 )
( 0.2484546302217362 0.0508978811282793 -0.0243166356935339 0.1016659607710274 0.0012299432681891 0.1363633432627607 )
( 0.2565161864926374 0.0534570682883116 -0.0187756997423442 0.1061783384984673 0.0033738351044879 0.1579508480021909 )
( 0.2657121291312687 0.0577731631937655 -0.0121397883823635 0.1138695442544862 0.0052658218548119 0.1816769948840858 )
( 0.2733523270770548 0.0614515791460255 -0.0069940956356848 0.1193395876854472 0.0069011899118874 0.1950266642701615 )
( 0.2796218792197063 0.0650268959375677 -0.0029328720124123 0.1237480022236752 0.0082922524169395 0.2023875117520277 )
( 0.2851429364809572 0.0693290886541018 0.0007354960678884 0.1281572096923934 0.0096022151019178 0.2052693151963397 )
( 0.2912886585032631 0.0745115405049697 0.0039105554198108 0.1324302458548904 0.0111911966138301 0.2050964236209794 )
( 0.2981567012764575 0.0801662242504231 0.0060274210625095 0.1363776145738056 0.0122136196224837 0.2024432965454824 )
( 0.3052210067100434 0.0867088788150425 0.0076565011490725 0.1390294097282205 0.012904448473735 0.1969123834705635 )
( 0.3132875302131788 0.0946131229304562 0.0081752066450414 0.141169389098296 0.0135672946163886 0.1897264186059631 )
( 0.3204710914758105 0.1033041690449256 0.0081485389401128 0.1434977353352197 0.0135974199154227 0.1824572046230606 )
( 0.3286955273117047 0.1121616971940281 0.0080411867455285 0.1448948133478662 0.0129229271922979 0.1751488980607079 )
( 0.3381577555682963 0.1206326339616076 0.0073347520903818 0.144806256042393 0.0113635580668246 0.1688638550539899 )
( 0.3468571060700793 0.1284744123746894 0.0066601758443678 0.144107035564044 0.0098114340913751 0.1638003794395233 )
( 0.3543654766641047 0.1361694567798479 0.006234554921501 0.1434846386618253 0.0081680395801776 0.159410956316343 )
( 0.3607799116851258 0.1429727129648206 0.0067724485003041 0.1425735073168622 0.0064300278073122 0.1560953398752821 )
( 0.3684924803673324 0.1482128807573408 0.00840610343591 0.1403383441736523 0.004870294892087 0.1537612187076814 )
( 0.3758607282034956 0.1523613222772631 0.0097051063292252 0.1375430511332784 0.0031994854811093 0.1525066565040397 )
( 0.248355422237038 0.0594194904928606 -0.0305590059999208 0.1012231269973492 0.0020505286142997 0.1626470662455936 )
( 0.2525301972165147 0.0628854662695531 -0.0282323573217378 0.1046329647387099 0.0046022168836249 0.1806024343779449 )
( 0.2571198826111124 0.0672424118245312 -0.0220259031635796 0.1132829500655908 0.0092430395313325 0.199341085233971 )
( 0.2622311977934859 0.0736713057899717 -0.0154920460191367 0.125468138525721 0.0141914827062408 0.2135243325140964 )
( 0.2669515339250574 0.0797445439982031 -0.0105238314020061 0.1342915832850731 0.0183756793122991 0.2167388884150572 )
( 0.2721269585940901 0.0858115762617339 -0.0061448256901897 0.1425334724969306 0.0216496879990741 0.2148795803256361 )
( 0.2768856616737281 0.0926829714392528 -0.002060819545918 0.1501401334168451 0.024319781670261 0.2091214762492173 )
( 0.281891561851651 0.1009068255274284 0.0010835453195713 0.1575114225441253 0.0269670384054604 0.2017240890433665 )
( 0.2886254109349849 0.1095960396252876 0.0032190211103808 0.1641822953219582 0.0283525683088212 0.1936231895412407 )
( 0.2967783434183845 0.1187249048868991 0.0056221490761366 0.1690340979316441 0.0286499683765461 0.1853599726750726 )
( 0.305203042847607 0.1284599459722055 0.0072317546693974 0.1727937074781655 0.0280248189072451 0.1780734895494749 )
( 0.3142960859391169 0.1382986751623092 0.0085456831915407 0.1761547028796924 0.0267515921432478 0.1729093555537481 )
( 0.3247948229503606 0.1474480692857585 0.0100903999402421 0.1784390028942791 0.0245113975286927 0.1696933494358287 )
( 0.3343276976288139 0.1551033854307114 0.0114586349128335 0.1789864297569617 0.0217880987911022 0.168013726845727 )
( 0.3424237549103751 0.1611340969281381 0.0134184245687279 0.1784371387400584 0.0200040720444312 0.1682287195852121 )
( 0.3484880565020825 0.1659271723959954 0.0152363898569985 0.1776764362226763 0.0184632364173288 0.1692432238773224 )
( 0.3526509646247837 0.1692592164979219 0.0174462233887882 0.1764275853442598 0.0172898911302684 0.1705033541011678 )
( 0.3567175663551791 0.171304555261226 0.0205245150148076 0.1745394816336762 0.0167719814487386 0.1719930487455341 )
( 0.3599067661013516 0.1722830833894526 0.0237196535842382 0.1716651331458379 0.0164719622203502 0.1731704958575496 )
( 0.2442759356175003 0.0708860598447091 -0.0308032768922727 0.1039634641657188 0.0034224006186436 0.1980925400173319 )
( 0.2438070137619895 0.0760515518948427 -0.0262919087064152 0.110589560537407 0.0076278097839459 0.2132962857359759 )
( 0.2434155773366929 0.0823167474901771 -0.0186123248320487 0.1237861976156189 0.015723392534697 0.2214365804138171 )
( 0.2445220836556827 0.0917076232111288 -0.0108575932675518 0.1407520585015686 0.0239995353038494 0.2218692381145272 )
( 0.2470798921733691 0.1014992675446392 -0.0044361793356525 0.1538517185806635 0.0301569774589281 0.2160712353408523 )
( 0.2510784345301269 0.1110412617341654 0.0005720269707755 0.165721048814516 0.0342672757725657 0.2072730545947541 )
( 0.2561738548742952 0.1213906977367965 0.004832510107135 0.1770226560506443 0.0368924206688188 0.1972614066131823 )
( 0.2623705287387927 0.1322003542722417 0.0081342607439373 0.186760541524406 0.038669081045186 0.1889147576090415 )
( 0.2704357665337168 0.1423689851207423 0.0102411337919679 0.1943921533592536 0.0385099266581818 0.1816786250803218 )
( 0.2784436408316217 0.1521416381833217 0.0117580086469979 0.2007113974725256 0.0369514635118343 0.1762474400901729 )
( 0.2859380954235611 0.161470515687275 0.0131857686348877 0.2055850878057773 0.0344466311851285 0.1723810084698558 )
( 0.295600986451262 0.1694105588757744 0.0148006468389726 0.2079283644809134 0.0318261916554381 0.1707191490278302 )
( 0.3050764356983442 0.1757208129119308 0.0174297951031524 0.2083491383664018 0.0295815178021731 0.170921580136513 )
( 0.3120816995666255 0.1804867384759945 0.0201754980261343 0.2083237577547537 0.0281242406452462 0.1721836655905192 )
( 0.3167038908455242 0.1835625592012272 0.0229813382467059 0.2076483019115859 0.0280106577456448 0.1742209996067378 )
( 0.3194597911239187 0.1855381242290476 0.0257712555761869 0.2065209481214003 0.0285369130990259 0.1760722769171675 )
( 0.3212254861107487 0.1863926757940633 0.0286290817014766 0.2046672168005955 0.0294444011663862 0.1772198331403947 )
( 0.3224072405432632 0.186695447322103 0.0315859455968181 0.2027121880187384 0.030960516653935 0.178230451008794 )
( 0.3235209361468643 0.1865064347705825 0.0342317865159658 0.2001812742123373 0.0327982737324075 0.1791210895872483 )
( 0.2308149567767852 0.0808306891143177 -0.0249110262943573 0.109768028812318 0.0058066473309143 0.2221531940035953 )
( 0.2257786047455143 0.0870480364315667 -0.0170028137293159 0.1192775643784704 0.0128707214924279 0.2272562195196962 )
( 0.2234159573337639 0.0967384888951605 -0.0077679830141581 0.1375018203348928 0.024364815388991 0.2237887473762646 )
( 0.2238335258344133 0.1098007318140014 0.0008094627781293 0.1587754774436616 0.0346553267945767 0.2162148927988237 )
( 0.2262001254189755 0.1224776167937411 0.0074269494337346 0.1750707541333811 0.0408647649975114 0.2060548492377026 )
( 0.2299345281512588 0.1345747710457332 0.0117688887625461 0.1896339815350503 0.0443686634187662 0.1959585090691407 )
( 0.2349272031893225 0.1460936854171144 0.0148438126238381 0.202455081902332 0.0453752829842161 0.1867555378726341 )
( 0.2414646398286433 0.1573061850438104 0.0164536533710719 0.2137229174577978 0.0444867914128985 0.1788699944791837 )
( 0.248509668266524 0.166929109375421 0.0177308939662227 0.2216575139131434 0.0424329081876792 0.1733531307039172 )
( 0.2549745146938205 0.1748741045352944 0.0184733679210221 0.2278497899679304 0.0393938379821571 0.1702018675115166 )
( 0.2624014588897036 0.1821983364058641 0.0193844210717129 0.2327218297921021 0.0366397426791831 0.1684847982845122 )
( 0.2704873658301772 0.1877974053949285 0.0215717332350428 0.2343519783644592 0.0352577332352856 0.1681772222713031 )
( 0.2767230617416942 0.1917807842905254 0.0247509622266194 0.2345655043093138 0.0354820535953555 0.1688291739403996 )
( 0.2811134525226477 0.1947877687070744 0.027964361291228 0.2345608095347746 0.0368727642202973 0.1702044257252836 )
( 0.2836237050973889 0.1968673297164526 0.0308165175144662 0.2344019720219658 0.0389983881625829 0.1711582122123718 )
( 0.2848813382312536 0.198355036976436 0.0333395159212778 0.2345358510292562 0.0414937941962857 0.1717458014479392 )
( 0.2858420600854872 0.1993937331489063 0.035601958622865 0.2340088679633446 0.0440937325353924 0.171895449414819 )
( 0.2872311878963854 0.2006661277064098 0.0378774503244377 0.2331900239060198 0.0470500856387721 0.172228457867829 )
( 0.2894748458835107 0.2018363898395471 0.039896277411643 0.2318281685707951 0.0501191235589164 0.1729816388535226 )
( 0.2113687966259947 0.0881529730901289 -0.0135228394390987 0.1169129602922741 0.0101064701468759 0.2313566979654136 )
( 0.2032926568520044 0.095899073586527 -0.0033059015434655 0.1299329350974673 0.0203534144351344 0.2275519083738796 )
( 0.2019485197404344 0.110107036527931 0.0067036004543331 0.1536882636631829 0.0340283060540416 0.2161840749880696 )
( 0.2047606608177884 0.1262608439736991 0.014292823258047 0.1783885223077861 0.0439529116909902 0.2054184090160949 )
( 0.2087213302295689 0.1398180633854291 0.0191666038869533 0.1961036008261538 0.0484361237827289 0.194742911731941 )
( 0.2141349384650341 0.1521252431436569 0.0217234458658506 0.2119153948502077 0.0498774768978315 0.1854172472945646 )
( 0.2190564470488685 0.1627522786992326 0.022479966134519 0.2254341540039891 0.0486923024136153 0.1776535121014416 )
( 0.2249013016405837 0.1723781593161456 0.0219175455196195 0.2375692270078342 0.0456775057644917 0.1703425627846718 )
( 0.2303616419983397 0.1804249807576671 0.0224009065812869 0.2463042178914563 0.0429014365085159 0.1651632749980902 )
( 0.2351466819216041 0.1867522650392101 0.0231711693667808 0.2526142679393093 0.040690179914261 0.162135925717073 )
( 0.2407365159215047 0.1921782982806177 0.0241948392015308 0.2571414863403986 0.0397800090146249 0.1604932012304014 )
( 0.2450632760486833 0.1963485367465226 0.0263867604739002 0.2598038931145666 0.0406713480664214 0.1597651095250939 )
( 0.2484378476080009 0.1999441650385853 0.0294171358068854 0.2615866699003493 0.0435168540007622 0.1594188599491886 )
( 0.252264406591438 0.2035217946916301 0.0325776467398092 0.2624909311986484 0.0470224100907957 0.1592404799359097 )
( 0.2552388411649051 0.2068191212204341 0.0355117792755929 0.263868295523 0.0507260249414696 0.159388224003316 )
( 0.257563817285502 0.2097243685465275 0.0379376684446349 0.2654627855935878 0.0543259186444152 0.1597078415821812 )
( 0.2605104932253168 0.212813803440673 0.0400387843902895 0.2668826471551777 0.057613810525198 0.1604164775854199 )
( 0.2650283749420555 0.21658323299089 0.0421407937751601 0.2677653592212826 0.0607399185627035 0.1614797860366019 )
( 0.2714844824036781 0.2205630314995288 0.0440605178505555 0.267384415284119 0.0635807587322535 0.1636624550231366 )
( 0.1888801956933844 0.093712475004343 0.0019044122374118 0.1253852270103806 0.0165531071310863 0.2304799949405686 )
( 0.1826015456845678 0.1034616046718265 0.0132435771460729 0.1422702963025415 0.0291140825625748 0.2218925405026045 )
( 0.1852375880015464 0.1206970312071952 0.0216020089616492 0.1700560016974582 0.0428757128376438 0.2079739053163867 )
( 0.1909501048782429 0.138224420573415 0.0258475829287106 0.1969494334538425 0.0502156940509547 0.1957624979409547 )
( 0.1967577716045271 0.151252182812744 0.0278043659380528 0.2161613022052192 0.0520736564396423 0.1854920789667971 )
( 0.2031647360084222 0.1623513647274643 0.0282890620972446 0.2325920227319095 0.0512037482700145 0.1765933310067697 )
( 0.2079509531714237 0.1717274541058877 0.0269816411591485 0.2469515271722612 0.0482824236086279 0.1681980048693385 )
( 0.2113360965079394 0.1788138416562138 0.0252610773992296 0.2591556534230059 0.0452553367329567 0.1608354278214776 )
( 0.2137154092706614 0.1845634564248536 0.0252237403896195 0.268492963602232 0.0437749621583799 0.1549354511186239 )
( 0.2165700230142396 0.1900562812077943 0.0258309346079225 0.2755250747930358 0.0437876770695918 0.1504928701594298 )
( 0.2195385397612806 0.1951071517592462 0.0268869551153921 0.281496204567643 0.0452595214455825 0.1470843877144175 )
( 0.2224844441753109 0.2001332634415717 0.0293397327819749 0.2865706142177164 0.0486112592028737 0.1457469475039536 )
( 0.2268515169779583 0.2055975134262005 0.0324673742248574 0.2906298444645649 0.0528129333678873 0.1459859833457538 )
( 0.232610873518294 0.2117278625687825 0.0357002949683721 0.294405252602796 0.0570613520657427 0.1463673993935498 )
( 0.239225683042808 0.2180865136952658 0.0390784946168965 0.2976717290753896 0.0613628389619354 0.1477168223057308 )
( 0.24571607861139 0.2240541978251245 0.041851046303852 0.3008594115926915 0.0650064222014653 0.1494528010900516 )
( 0.2528818737394616 0.23028722981408 0.0443659923832375 0.3041629780625955 0.0680981934170179 0.1515908385320883 )
( 0.2622487228626023 0.2374331374244588 0.0467995655943766 0.3066562364316629 0.0706651308222771 0.1544819324456009 )
( 0.2741135702434344 0.2451952612182692 0.0490577183010525 0.3075394409942244 0.0726490336235044 0.1582609761414144 )
( 0.1705074529754025 0.0974152689768187 0.0184968009816683 0.1350232363970164 0.0240217346741875 0.2254736228461556 )
( 0.1689890309060049 0.1089825376217507 0.0293863648625384 0.1548817997745101 0.0372222617811707 0.2139729537159942 )
( 0.1765277581587065 0.1280010921583451 0.0343788740589308 0.1851333854577511 0.0494520755111989 0.2003405004588571 )
( 0.1846215281728059 0.1447459679101737 0.0347689655499483 0.2133482222031128 0.0537673789716096 0.1883698879006065 )
( 0.1905600980007207 0.1562596829906937 0.0336498581764918 0.2341228291156054 0.052971337570754 0.1777176853373278 )
( 0.1952701200924007 0.1652841266910952 0.0312646195403152 0.2518132027327922 0.0500102829751653 0.1678987283574877 )
( 0.1974560877977528 0.1722864869554472 0.0287609511316157 0.2656886666348235 0.047151621657606 0.1580051356184047 )
( 0.1978407781295344 0.1776568621058777 0.0268241502032443 0.2783111208782853 0.0458792311895445 0.1496294336539717 )
( 0.1976935682970156 0.1825267771894382 0.0261706396427196 0.2905744129426142 0.0461576112966207 0.1425315669121233 )
( 0.199250278843877 0.1887026409853024 0.0268484257209957 0.2996577393746995 0.0482657013158207 0.1367465134761715 )
( 0.2021951783312682 0.1956808839115822 0.0286464816596698 0.3083216104667127 0.0521179926023594 0.1331446047132384 )
( 0.2075894376097418 0.2041013670197209 0.0320964074485468 0.3166929348835138 0.0572766051748892 0.1330858192261033 )
( 0.2164096380136024 0.2136653914227821 0.0356115113912768 0.3235895861421399 0.0618941611218327 0.1350095808977651 )
( 0.2262719496008706 0.2232452518954103 0.0389311495370948 0.3301680093838295 0.0659295078825124 0.1374816430017627 )
( 0.2365066723369127 0.232778064076066 0.0424566059724905 0.3356885901491607 0.0697402587723886 0.1405443529539479 )
( 0.247509280443498 0.2426461300425143 0.0455648855960616 0.3414779284035755 0.0727100757456506 0.1436482625705701 )
( 0.2595097408096922 0.2529258872783775 0.0486050088560381 0.3467959058280676 0.075137320449161 0.1471981194025582 )
( 0.273563393377088 0.2639874282633211 0.0515607093603887 0.3507208051172552 0.0769071062959312 0.1516644141037312 )
( 0.2898993969093252 0.2755820983450041 0.0544182322590416 0.3525844182970603 0.0779117070398213 0.1564807675848485 )
( 0.158516314810653 0.0986842903599623 0.0344256708871066 0.1445463913311005 0.0309256098075842 0.218941226864136 )
( 0.1625698952256918 0.1114442306559823 0.0430499653325676 0.1668696680276122 0.0436096869629103 0.2069945563643989 )
( 0.1740760093433328 0.1313131643321417 0.0436786600702405 0.1997244967640746 0.0531884738658873 0.1936321913910607 )
( 0.1827627282468749 0.146470557142081 0.0404419814200261 0.2287344128067586 0.0546331063773975 0.1812720799286107 )
( 0.1870815637611 0.1558415525545325 0.0364686145409559 0.2502961421197498 0.052267069712375 0.1692281000429228 )
( 0.1878887099841426 0.162312649250605 0.0319064315338737 0.2691712825466232 0.0491576633989276 0.1580865052348743 )
( 0.1861790465286261 0.1671622395158835 0.0283183570060153 0.2841332380021302 0.047537858622667 0.1468438083285198 )
( 0.1847447890520446 0.1724392294657887 0.0263709468235788 0.2988412268242813 0.0477507149582066 0.1370801692036629 )
( 0.1838670584081081 0.1782820104732811 0.0258610584575554 0.3140480355810149 0.0497607849443259 0.1298030202345787 )
( 0.1861461905358579 0.1864200169080741 0.027165027894321 0.326532050509917 0.053787435927122 0.1246642401488651 )
( 0.192494617124282 0.1973326298285477 0.0299314019424458 0.3383009212100569 0.0588465743934123 0.1227993954037212 )
( 0.202038040427752 0.2102832259774706 0.0340220752004401 0.3501991089281834 0.064446850169563 0.1246372776988772 )
( 0.2153974411155954 0.224987420107005 0.0384325680773621 0.3608688613585813 0.0693841053644079 0.127875343897459 )
( 0.2294157182515261 0.2389434945199446 0.0422911091043136 0.3705158627487145 0.0731014198829696 0.1323217846223543 )
( 0.2424548112984695 0.2515812879882275 0.0459287005860539 0.3788421731640155 0.0760439652324909 0.1371058683041468 )
( 0.2571498127807995 0.2656336390686937 0.0495136281205838 0.3874090397079777 0.0783454859275306 0.14148705169102 )
( 0.2732521357052551 0.2802313925905818 0.0529040629749003 0.3947941730909777 0.0798491297180429 0.1459810815999039 )
( 0.2916123430314247 0.2954921420871345 0.0564494337061705 0.4001218208107007 0.0805923288661458 0.1510083506138368 )
( 0.3126818154591333 0.3115215099614505 0.0599110890994011 0.4028278827368856 0.0805229579354026 0.1563219195961714 )
( 0.1550346777903798 0.0987597207601006 0.0488114034980053 0.1546287754350491 0.0374051704229911 0.2138529894803232 )
( 0.1646591974566245 0.112512133700751 0.0535043956522872 0.1796329054449091 0.0485603701851982 0.2017489832754 )
( 0.1758825992808664 0.1314647783819926 0.0487130950585046 0.2146639520612049 0.0544140168121369 0.1871444384601062 )
( 0.181974727878234 0.1437606360411634 0.042255969158845 0.2434685629885231 0.0534673753720136 0.1736925986758571 )
( 0.1827569690921743 0.1510249112372433 0.0362401425753597 0.2657343963824299 0.0509311260136824 0.1604653592934731 )
( 0.179969622002524 0.1557870953457346 0.0311818678476015 0.2851051031870418 0.0490397106426217 0.1477518952416272 )
( 0.1757405369986273 0.1595983861375064 0.0269760859806586 0.303224018147169 0.048588949604427 0.1348913569043675 )
( 0.1730096356710419 0.1654121307409755 0.0249500375827114 0.3222454258669214 0.0506195788920274 0.124445227285411 )
( 0.1733647951518675 0.173770575487852 0.0254011261633868 0.3399118478691125 0.0546836049975944 0.1179276725796258 )
( 0.1782628135390492 0.1854342864794654 0.0272938535285395 0.3563748978944453 0.0597274571489136 0.1147597523722948 )
( 0.1886083307076894 0.2013291155361115 0.0309291539135878 0.3720389518247293 0.0653104402568255 0.1157581429090734 )
( 0.2026338332388732 0.219464818407568 0.0356873082915214 0.3867636929548497 0.0706923070810366 0.1199217095136233 )
( 0.2186923984893994 0.2381734029045012 0.0407406473783938 0.4009663018387855 0.075417930837685 0.1250149486855863 )
( 0.2355816187443686 0.2565158068446411 0.045323665767456 0.4139258880220595 0.0787361053924268 0.1308303739026485 )
( 0.2527568401378311 0.2743109035057419 0.0495395410941493 0.4259336608920333 0.0808488380810445 0.1361879076291361 )
( 0.2710383590086624 0.2929275748635356 0.0535088165114309 0.4377412511891375 0.0821624279644532 0.1411573783213919 )
( 0.2908187749138867 0.3121444857669906 0.0571399907346282 0.4480261595130301 0.0825189382486378 0.1459991990642892 )
( 0.3136290496071297 0.332105769818446 0.0609285243661312 0.4552380501414069 0.0821056205631146 0.1507580951005169 )
( 0.3401387216026156 0.3529159148644337 0.0646550329459034 0.4586995132082867 0.0810128537099857 0.1558210835637055 )
( 0.1592192397158647 0.0979158206347926 0.0598422344022353 0.1638431037349345 0.0424797753766097 0.210156278754502 )
( 0.170240099270209 0.1117132143691092 0.0593835516678906 0.1906386102187114 0.0510608106924701 0.1971878113183553 )
( 0.1789852236266224 0.1288636385715072 0.0502128691568916 0.2278689690707752 0.0542003850946348 0.1805940384315743 )
( 0.1805138429348872 0.1377917737328283 0.041310685255107 0.257081137220163 0.0522752442437715 0.1654114163880796 )
( 0.176856317035154 0.1429254399609457 0.0340763368045061 0.2803498854282762 0.0500249556901243 0.1505177451242841 )
( 0.1716077754846403 0.146743846941435 0.0285615737698909 0.3015975392248594 0.0493123321056383 0.1359543075003704 )
( 0.1670401258191951 0.1509838994280357 0.0248679914532017 0.3231717886268632 0.0505995714708409 0.1232226136846944 )
( 0.164685484138215 0.1582728974123832 0.0235379497192929 0.3458520174786888 0.0546729212990215 0.1144437365094343 )
( 0.1668724070435003 0.1700299103234954 0.0246632139088344 0.367660904691175 0.0601167839071751 0.1094731181921944 )
( 0.1742462744183315 0.1863368981427843 0.0272941840660958 0.3888427749222774 0.0654317982971276 0.1085778672609111 )
( 0.1873276125142642 0.2071821176983817 0.0318364895560092 0.4087150057965402 0.0710017253999679 0.1119962323454916 )
( 0.2054775969826379 0.2311732802738107 0.0376348573823707 0.4272482479047515 0.0761007973123343 0.1179417585113505 )
( 0.2243532042614219 0.2541861435869673 0.0430738336118258 0.4445305219892366 0.0800017227585556 0.1243848619536999 )
( 0.2440058848912835 0.2768531735622085 0.0481447172883786 0.4604570917485142 0.082516639808573 0.1307918635404751 )
( 0.2651423241533679 0.3003984231498546 0.0528538394206946 0.4767673356380142 0.0839113515361939 0.1363723255248563 )
( 0.2868989119840099 0.3239476372387775 0.0569004679499594 0.4927555444931902 0.0840572059630921 0.1413291005713397 )
( 0.3110871406841539 0.3483217732447712 0.0609100945155366 0.5065176055051354 0.083480547974693 0.1460118908969148 )
( 0.338839891121913 0.3734603764847442 0.0649179619543733 0.5158684318098131 0.0824943893365734 0.1505859572039172 )
( 0.3716520147837376 0.3998755760745462 0.068424942860037 0.5206009991557666 0.0807648840573688 0.1554846013445432 )
( 0.1658072362842345 0.0954418366166824 0.0666498335242694 0.1729974419052074 0.045643053206985 0.2062931717830907 )
( 0.175470357756361 0.1084015746274723 0.0614685997313619 0.2015691204639484 0.0517794558663136 0.1916526589874141 )
( 0.1802592200120137 0.1233810534111065 0.049260872019505 0.2400934097843481 0.0531855649617283 0.1736699457696023 )
( 0.1771825632184349 0.1295015587250085 0.0390071408652208 0.2694783399106649 0.0511684682950231 0.1571239909463266 )
( 0.1708389884026364 0.1331420015387585 0.0311331166947922 0.2943496160609857 0.0497747263677406 0.1406527350052684 )
( 0.1642146061620074 0.1367657191306669 0.0251480032523205 0.3190445488722184 0.0504380709084345 0.1253866490785934 )
( 0.1600266593908895 0.1430143960792319 0.0222209358408492 0.3441543819651939 0.0536684032654943 0.1140431485556915 )
( 0.1591611406255773 0.1536872960880614 0.0219232316218086 0.3706164640644225 0.0590309517246153 0.1069281043989249 )
( 0.1629824677810174 0.1690964364968611 0.0238237622023044 0.3969520651492237 0.0647860978025353 0.1037700473251378 )
( 0.1726237038357574 0.1898139902552246 0.0276234956790934 0.4226221629496208 0.0703407086215544 0.1052847001689217 )
( 0.1879144105541778 0.2152077212755602 0.0329852685130222 0.4469427605486132 0.075763166494783 0.1107389303911612 )
( 0.2086439561364628 0.2441859531073604 0.039360238864393 0.4705689887100908 0.08024719672145 0.1175666174080669 )
( 0.2309638563591122 0.2729674552688599 0.045350374144831 0.4923841924537263 0.0831616889974351 0.1244305838335197 )
( 0.2542352514364551 0.3012110039081952 0.0509711937948802 0.5122132156206667 0.084856323094473 0.1311546703627514 )
( 0.2784172695830587 0.3296999968400218 0.0559309680473059 0.5330694263455441 0.0856324404740105 0.1370036408497799 )
( 0.3031287308923588 0.3577543954755264 0.0600425854037222 0.5532347273872439 0.0852103384556176 0.1418932107857 )
( 0.3315289087636162 0.3872921829514989 0.0639251237030795 0.5704653818962743 0.0839558976017057 0.146178272538382 )
( 0.3661106159883373 0.4192739899690246 0.0679065755426358 0.5827467867738716 0.0825608702334344 0.1506204328869854 )
( 0.4080286936291187 0.4531827000503987 0.0711724710932621 0.5891635924832396 0.0801632839000058 0.1552506896403383 )
( 0.173907336856296 0.0914018001180951 0.0698816794126211 0.182380618847589 0.0471801848294778 0.202095581044901 )
( 0.1805837988809303 0.1030122017778253 0.06053013367051 0.2131447917316429 0.0516530492547136 0.1858141019524723 )
( 0.1795256290543166 0.1153496795720567 0.0463702224190132 0.2516095024404317 0.0520604373179483 0.1669143810708925 )
( 0.1731789684649905 0.1198772978797267 0.0357263946551224 0.2811483051899306 0.0500873271666018 0.1491755886438316 )
( 0.1650242432906875 0.123216355662667 0.0274611324777875 0.3089083512069587 0.0499329003478146 0.1320105357133107 )
( 0.158165147829181 0.1280785163821524 0.0217657029302806 0.3372615670900686 0.0520891607413656 0.1168626314698403 )
( 0.1545025513256019 0.1366763729317605 0.0196202380585053 0.3662635010875699 0.0566562872882295 0.1064901889247672 )
( 0.1546825986891366 0.1503631997724776 0.0201526665906058 0.397480988928538 0.0628450057603264 0.1013024836475218 )
( 0.1604986969722393 0.1695784209846524 0.0229520450234686 0.4280395636141388 0.0690140817675777 0.1008159118619455 )
( 0.172202510293699 0.1946516064341928 0.0278777879430078 0.4570619123671068 0.0746408563571304 0.1041221665241069 )
( 0.1899934927314492 0.2255411918735055 0.0342933354864759 0.4867650427709573 0.0797349670173584 0.1107715469544472 )
( 0.2125298851906225 0.2592679103162498 0.0411214061655791 0.5155193361227277 0.0834755241150334 0.1184401251319097 )
( 0.2371031060345294 0.2931363782622662 0.0474123624725256 0.5430579190654482 0.0854463849918805 0.1255542580110453 )
( 0.2638249238358398 0.3274627915121025 0.0533627616578453 0.5692711373175107 0.0865062853506701 0.1322114416765585 )
( 0.2904159847595725 0.3604338092564279 0.0584755889688689 0.5952577230073274 0.0868963039135723 0.1376583919779329 )
( 0.3188323535849611 0.3936896871595905 0.0625841002656258 0.6196290648639365 0.0861568387197862 0.1421016437295824 )
( 0.3532777298029877 0.4304833479640558 0.0661441376401115 0.641714138110301 0.0843913571714857 0.1462329082714988 )
( 0.3960236896873691 0.4706148225959536 0.0697782961495184 0.6583836949843674 0.0823834299633588 0.1505166455798473 )
( 0.4489284177953305 0.5123335686587298 0.0730490380667252 0.664370514504545 0.0793077828939831 0.1548221473245651 )