/*--------------------------------*- C++ -*----------------------------------*\
| =========                 |                                                 |
| \\      /  F ield         | OpenFOAM: The Open Source CFD Toolbox           |
|  \\    /   O peration     | Version:  2112                                  |
|   \\  /    A nd           | Website:  www.openfoam.com                      |
|    \\/     M anipulation  |                                                 |
\*---------------------------------------------------------------------------*/
FoamFile
{
    version     2.0;
    format      ascii;
    arch        "LSB;label=32;scalar=64";
    class       volVectorField;
    location    "0.0071";
    object      U_LES;
}
// * * * * * * * * * * * * * * * * * * * * * * * * * * * * * * * * * * * * * // 
 
dimensions      [0 1 -1 0 0 0 0];
 
internalField   nonuniform List<vector> 
13597
(
( 17.76519975449402 1.996486463762914 0.0787739480192678 )
( 17.77312175897248 2.0436975398972157 0.084235251115711 )
( 17.800293988272173 2.137614161761892 0.0932949182401055 )
( 17.840414857932736 2.2566563705426046 0.1037109756515446 )
( 17.8751254097981 2.356365738332652 0.1122153959542724 )
( 17.90044438211986 2.437053768276781 0.1174757914106453 )
( 17.92789303470728 2.516860044206776 0.1207517990571119 )
( 17.959745567106502 2.600637348185817 0.1245734266941912 )
( 17.99395042513727 2.684297267808448 0.1264275460127086 )
( 18.028609093328747 2.768428978801996 0.1262995108464519 )
( 18.06590743864417 2.86123970025256 0.1256651384844021 )
( 18.10715436126294 2.954204249470948 0.1233438268719423 )
( 18.151707370528037 3.045873366224496 0.1199581281910848 )
( 18.196504330659952 3.142841788657946 0.1160574019724524 )
( 18.239183912684886 3.242129343617722 0.1118051988489055 )
( 18.28466745834108 3.3403377313349383 0.108168520916149 )
( 18.334045710562503 3.4348947191607904 0.1054100862391737 )
( 18.38421974288086 3.5286609711062558 0.1020829719773474 )
( 18.43470642800766 3.626047324786256 0.0974414430093062 )
( 17.65080130378004 2.039370033378667 0.0999981468337479 )
( 17.643557172380735 2.0998158236344704 0.1060911125891984 )
( 17.651051520885886 2.223587533495245 0.1119190934702989 )
( 17.663169095083187 2.36433444677488 0.1149643301358515 )
( 17.668695608325862 2.470971059245668 0.1161117967848992 )
( 17.6704712909931 2.568283304799726 0.1156410457952225 )
( 17.675534102978787 2.6664737050360654 0.1133172243458454 )
( 17.681781563740255 2.7684095465012333 0.1107175569944708 )
( 17.691522808444347 2.8714744857726906 0.1069202145693186 )
( 17.70202263335322 2.974470966692984 0.1023190521611489 )
( 17.712787713045813 3.0883577882820945 0.0972931413192439 )
( 17.721892646106173 3.2089184945138998 0.0923092855110405 )
( 17.730662976796427 3.330504767276725 0.0871138196857334 )
( 17.742730846247238 3.4542283598650734 0.0823575887833232 )
( 17.754933771187908 3.5743549236660965 0.0797238040628872 )
( 17.76810730349508 3.688866722139687 0.0782333595103992 )
( 17.781205445955294 3.794584886017397 0.0777666045808773 )
( 17.794468885890776 3.90121969644292 0.0784998698145287 )
( 17.812524472766345 4.006350034771725 0.0795156951798384 )
( 17.535424461447345 2.071725522246271 0.1158047943231575 )
( 17.506913846910013 2.1430194905448148 0.1198969799080447 )
( 17.4862138270724 2.2873486315115343 0.1183771049658301 )
( 17.46456583922138 2.4425522240778963 0.1119198709867453 )
( 17.439750383352145 2.556306959416474 0.1056966610639293 )
( 17.41849521825923 2.6680452912179464 0.0987554398108084 )
( 17.400188927665873 2.782907257344035 0.0917901615283101 )
( 17.376560059579855 2.898260002356996 0.085442398106783 )
( 17.35658488660384 3.0181982241798 0.0790231057524604 )
( 17.339841701276686 3.1464864707680684 0.0744254992318297 )
( 17.31998525859778 3.2809680165243216 0.0707422057193717 )
( 17.29983132795082 3.424165212563258 0.0688629359481751 )
( 17.281595518909377 3.5709836186991097 0.0686711676399884 )
( 17.265875733882122 3.7107822005893216 0.0699382642902518 )
( 17.252887650333573 3.838085406639042 0.0736628836259764 )
( 17.241727310332422 3.951573844969709 0.0775847994500819 )
( 17.227808905805315 4.053561341432094 0.0818584947077566 )
( 17.213680406621744 4.155412319267584 0.0874360083032133 )
( 17.207940100008717 4.260201050706792 0.093868923822141 )
( 17.407604522032486 2.0915092917534923 0.1269777302602497 )
( 17.354087595524472 2.173221847454927 0.1256181188764652 )
( 17.304137341266667 2.329078054150886 0.1152143908704247 )
( 17.24965415097569 2.493586429403869 0.1007989192343948 )
( 17.1931372383672 2.617579815296009 0.0895791068474549 )
( 17.142675887121033 2.7384325193014414 0.079402916026595 )
( 17.09128169551199 2.8670492300692203 0.0702461588894506 )
( 17.036792779134096 2.9969673323226997 0.06432154091528 )
( 16.99038288390707 3.131288351256304 0.0606694910256495 )
( 16.94695128187034 3.2751718734195734 0.0591816688011982 )
( 16.8986300461327 3.427522806239179 0.0602736894410931 )
( 16.858304799941177 3.584532683752168 0.0647907863687799 )
( 16.823511010554395 3.740405921782659 0.0720012444462003 )
( 16.786044950939317 3.889224950447124 0.080299354935775 )
( 16.74927275442272 4.0169210357013965 0.0888788086935915 )
( 16.715103375453783 4.126285635847307 0.0966681525682948 )
( 16.681378153491256 4.225278853755796 0.104053661855523 )
( 16.645500917244444 4.325419151618122 0.1112224454436208 )
( 16.6143136209987 4.435973723825484 0.1181001796078473 )
( 17.26862811949353 2.1015045070095817 0.1323095166519961 )
( 17.193834820959047 2.19358827041834 0.1237082285546992 )
( 17.114450767002413 2.36065702161067 0.1052488311393892 )
( 17.026754002759105 2.527919978120832 0.0870473117891854 )
( 16.941303138430857 2.657746596006156 0.0738550148937169 )
( 16.861581446946442 2.7862571912868592 0.0635260385738291 )
( 16.778243048749356 2.924254748216543 0.0560820287926627 )
( 16.696729241209468 3.065889493072921 0.0521912309782974 )
( 16.62463522967495 3.2086541001395474 0.0530085502834545 )
( 16.554041847395958 3.361608910761245 0.0564684171407564 )
( 16.483712324231252 3.5285153174239614 0.0631232438125067 )
( 16.420188891687904 3.697213612044842 0.0734000848006481 )
( 16.359758659935384 3.860010461781508 0.0853224262971103 )
( 16.297716165843966 4.012020629015531 0.0964559577415518 )
( 16.23522272428299 4.1369508830058725 0.1054451352498923 )
( 16.174308138744813 4.2490589005661406 0.1129311604466175 )
( 16.116641480076613 4.355878375060143 0.1194402832382736 )
( 16.06049253133669 4.462721485080162 0.1250290860375285 )
( 16.005951555719967 4.5820519125102 0.1295603185834074 )
( 17.124652972783014 2.09952801079521 0.1310369319471679 )
( 17.025719257632574 2.2016670821656867 0.1159512702811245 )
( 16.91386540032383 2.38194504827818 0.0910641975655844 )
( 16.798363565823454 2.551180318109574 0.0711359673877864 )
( 16.689503586538557 2.684466089324628 0.0587726831090545 )
( 16.586726958493742 2.8200323955722437 0.0506233029723697 )
( 16.482764747054677 2.961764301466064 0.0467741042803612 )
( 16.378020222962796 3.1087610116904565 0.0463644067477194 )
( 16.275093559837085 3.260202226939651 0.0515889417852926 )
( 16.176347573795166 3.427063326650739 0.060490767593783 )
( 16.08613773601542 3.601313374562861 0.0712355406968784 )
( 15.995170870407955 3.77489110331178 0.0831893823858424 )
( 15.908505129742815 3.943592445703244 0.0957274851313713 )
( 15.826618917398257 4.095834083530124 0.1061157545848933 )
( 15.741640928270932 4.22365893002564 0.1133280463622198 )
( 15.662106916512291 4.336508270501901 0.1186120101806835 )
( 15.584779606805348 4.445585437591379 0.1223289045530425 )
( 15.508530894698415 4.555980608753952 0.1248875733739142 )
( 15.434416391582346 4.679911404880756 0.1263243682874174 )
( 16.968470114022256 2.0902303666115394 0.1241150571275521 )
( 16.846876715775196 2.203129104506228 0.1039787541370516 )
( 16.709439216347224 2.3912475182931567 0.0765663110760756 )
( 16.57106039634411 2.5602677164483945 0.0560467158225736 )
( 16.44272769951323 2.6959887778960607 0.0454474020949129 )
( 16.316892521758874 2.8348504374570758 0.0409531090922753 )
( 16.192663589281242 2.9822183006247136 0.0407865575203361 )
( 16.06852816424137 3.1347627094764263 0.0452324125446673 )
( 15.941390820751778 3.2910119393964123 0.0544683477278528 )
( 15.825712716484215 3.4634029764652485 0.0662958108005314 )
( 15.713313288215916 3.643948505485554 0.0786412650464827 )
( 15.596466601013638 3.824564247464283 0.0906310969899721 )
( 15.488493987721611 3.993629765929868 0.1009572147377393 )
( 15.385851852875014 4.144466720788778 0.1084631059321289 )
( 15.281757394614862 4.277483012340914 0.1135908732201692 )
( 15.182959245077312 4.389494203578973 0.1168156936316511 )
( 15.087956081026746 4.497646111997951 0.1183656465416613 )
( 14.992502223157512 4.613840537582775 0.1183295613876508 )
( 14.89970264111434 4.7424399586997685 0.1168040805846973 )
( 16.812357151915403 2.076857964884175 0.1133575199449413 )
( 16.67052951885375 2.1945013148279453 0.089822623907865 )
( 16.512813559786046 2.384573179079254 0.0629280541787462 )
( 16.354877147116117 2.5537116462271614 0.0446021511714046 )
( 16.20609482228857 2.693328800109368 0.0361702668050128 )
( 16.060570407739377 2.837416660248221 0.0346144877496107 )
( 15.91647107187354 2.989636723858249 0.0394181734407228 )
( 15.77542264961088 3.1430773239571987 0.0479009363381025 )
( 15.629120320805294 3.3025178511944984 0.0582364710864394 )
( 15.494525642481554 3.4817647596726324 0.0708059852766157 )
( 15.35838249260467 3.668164433467653 0.0836778178829003 )
( 15.22265019537864 3.854013311607785 0.0950628141783534 )
( 15.096232645312574 4.02484604817406 0.1025321696179787 )
( 14.969696138519154 4.171044525418918 0.1068052379923419 )
( 14.85111993513937 4.29831283746663 0.1094403428855811 )
( 14.734981845619313 4.412115006336072 0.110123760532458 )
( 14.621896397971303 4.525454979761598 0.1095835097236971 )
( 14.510087969338814 4.648674150030932 0.1076202061150142 )
( 14.400913808403931 4.783169645715746 0.1042255244666939 )
( 16.65808592615527 2.052994063206209 0.1003123788383297 )
( 16.496338434545954 2.1710305283040747 0.0754689865173218 )
( 16.320466996710934 2.3639185829138407 0.0501032848979656 )
( 16.149056316394002 2.533635332774676 0.0350193064017951 )
( 15.981884335684414 2.678959488960075 0.0301269821987531 )
( 15.822366099817106 2.8247712712661617 0.0319403860526922 )
( 15.6643391764606 2.9755504741695007 0.0401094637879691 )
( 15.508583541910362 3.1357961772356706 0.0506327110178813 )
( 15.347991872480728 3.302781647930272 0.0617592301311187 )
( 15.184515862520785 3.4834938755707463 0.0741047846848181 )
( 15.027039606945683 3.6735223153742167 0.0856568390048969 )
( 14.877320236437662 3.859971030765515 0.0951501983903827 )
( 14.728900616827165 4.032302116238873 0.1005442529790395 )
( 14.583433252549533 4.179071078186266 0.1026478020492189 )
( 14.45062270848506 4.303135940066088 0.1031448001945254 )
( 14.3178593628118 4.420908909820727 0.1016837538448729 )
( 14.18680903837082 4.537845141645529 0.0991816889462446 )
( 14.05817288366968 4.664372074715644 0.0961405027172014 )
( 13.930532895738 4.804809409647895 0.0919830511705082 )
( 16.50334202068936 2.026657028906711 0.086111816646812 )
( 16.32705564179495 2.1517528398079104 0.0611468098982269 )
( 16.13688490587673 2.345454875921965 0.0379866737852117 )
( 15.953528933275884 2.508760822026798 0.0270178389053799 )
( 15.776244950923523 2.6573020914983627 0.0263354381897674 )
( 15.604625288071745 2.800292272811033 0.031669893418714 )
( 15.428570245274273 2.947160114576976 0.0408801735123159 )
( 15.250695690929817 3.1110207311252496 0.0528273790750957 )
( 15.076365001430306 3.280205148103431 0.0653821322972361 )
( 14.89610544689051 3.463143091692917 0.0766194173599899 )
( 14.722363445699624 3.660393825474138 0.0860127397507701 )
( 14.556973305768004 3.851242117156216 0.0929489246889013 )
( 14.39039800991454 4.021059766668498 0.0967172953399096 )
( 14.231898785252689 4.169163564963018 0.0973960781478985 )
( 14.081642947673204 4.295707369879895 0.0962959473451979 )
( 13.930036185974576 4.413921344051354 0.0937426842399155 )
( 13.777935332091564 4.532618379342139 0.0899965317967874 )
( 13.63068775292752 4.66169947122677 0.0855669925902736 )
( 13.486985476261976 4.809105919836566 0.0800110573393761 )
( 16.361672698926473 1.999484335786765 0.0726258537437232 )
( 16.17739585530968 2.129976492392275 0.0491301355329406 )
( 15.968380817702093 2.3215579918797205 0.0290444329972581 )
( 15.77568402654328 2.4775515502643213 0.021806643630142 )
( 15.588417953488191 2.623592402771344 0.0241875463870535 )
( 15.400225102396751 2.766003347660293 0.0318248017591911 )
( 15.208441048696928 2.909333251728632 0.0418970819817096 )
( 15.01565813353965 3.068430467412528 0.0548490742518079 )
( 14.824718305945671 3.2435141361304933 0.067748838880195 )
( 14.63305383209654 3.4316236089844274 0.0774131732111086 )
( 14.443398306178011 3.6306675837046862 0.0849656161505195 )
( 14.256617774213874 3.8289428119571935 0.0902736137834018 )
( 14.078660901103254 3.9977047485518793 0.0923883171059549 )
( 13.907449890818196 4.146291559745718 0.0917760491705505 )
( 13.735523504146135 4.276751219699354 0.0895002795177624 )
( 13.561680770644564 4.395216293904458 0.0855061354357487 )
( 13.390964164729272 4.517126292287317 0.0804096951407151 )
( 13.22990884261056 4.651449472103336 0.0746121912834426 )
( 13.07085413296946 4.807582057298501 0.0677823327729833 )
( 16.22664773122965 1.96724234735538 0.0593700565074338 )
( 16.032005235008203 2.100373603482084 0.0381220812590877 )
( 15.81036803541401 2.290837298893241 0.0225764002071818 )
( 15.6096708527564 2.4391579904833347 0.0189272366494641 )
( 15.410602759953962 2.5780239043272064 0.0234721546392039 )
( 15.20723076789243 2.7210192920168184 0.0321665805449486 )
( 15.008023122689014 2.870105414359993 0.0436677466949834 )
( 14.803339173059127 3.0311698786726926 0.0566924798660585 )
( 14.59683464669398 3.2086584175658683 0.068275182943804 )
( 14.390483302442997 3.3970435329737194 0.0767534682443576 )
( 14.184255611495644 3.5943790994986955 0.0831331801014943 )
( 13.979355366447953 3.7903691006334177 0.0870030398459749 )
( 13.783539151149862 3.964288638148688 0.0874209144238571 )
( 13.593482255073356 4.120458151542438 0.0853589100976347 )
( 13.400177788134076 4.252645365465502 0.0817611453135976 )
( 13.210382802672774 4.369651614172824 0.076533687379374 )
( 13.028699448540586 4.494721137096217 0.070118750030655 )
( 12.855210028707216 4.640565484152738 0.0640232103968144 )
( 12.682452451736902 4.8082401719616605 0.0580021314390453 )
( 16.095702321427954 1.9258121428596 0.0468104031890872 )
( 15.892717305580833 2.062051978209419 0.0281404968534423 )
( 15.66747928576454 2.2509114260167222 0.017183180538284 )
( 15.45662168215268 2.397450336791159 0.01677304683801 )
( 15.248389544933664 2.537228271269404 0.0233564709504354 )
( 15.035562647755736 2.68037139905053 0.0334157401893832 )
( 14.824741038166014 2.830422799750672 0.0455465134818878 )
( 14.604415335397627 2.9899456430649183 0.0577390678607567 )
( 14.382281681389308 3.163681679108578 0.067935133157656 )
( 14.163774472973062 3.355550395055853 0.0756133797933538 )
( 13.940673915352123 3.560326518628005 0.0809000543749581 )
( 13.719670378941998 3.754523482214257 0.0829530979689074 )
( 13.501362546800934 3.9303273271632304 0.0816604702768087 )
( 13.286635174026747 4.088667742398755 0.0782360562472294 )
( 13.080717252985774 4.217074678764753 0.073559962353886 )
( 12.884851319633787 4.337384268669813 0.0680991725832104 )
( 12.691985014999188 4.47157442698633 0.0619734931079935 )
( 12.501458644412946 4.627177604219634 0.0569320174157375 )
( 12.307531306135038 4.80898212854303 0.0533113030569502 )
( 15.975890426607029 1.8752805661673624 0.0370312810209933 )
( 15.771969553066375 2.014205999316189 0.0220782213049806 )
( 15.537491458192967 2.203198680228031 0.0137846027733267 )
( 15.317474232829706 2.3492865871697166 0.0152738464359858 )
( 15.09871942672743 2.490404568243191 0.0237777554348805 )
( 14.87969877783994 2.630134295816416 0.0354534006842048 )
( 14.656859287604266 2.778096538820156 0.0470616957914083 )
( 14.428179292321612 2.9366303813323467 0.0575877677686719 )
( 14.190490205401805 3.1092807936782467 0.06661999894592 )
( 13.953079774491885 3.3045461991401397 0.073784594369557 )
( 13.71229802007615 3.514168549176532 0.0774766467624642 )
( 13.470405237361776 3.715803945804521 0.0780163482588505 )
( 13.234140745058625 3.895825590988574 0.0761381575271514 )
( 13.005827516425043 4.047891857045484 0.0716804389835652 )
( 12.788599348882308 4.175799250133188 0.0662131678554626 )
( 12.578246922849702 4.307258753504432 0.0611786122524525 )
( 12.37095607052324 4.456667868443379 0.0567145422541034 )
( 12.157003227087417 4.617122693443829 0.0535916325793138 )
( 11.93328993956942 4.806134125536192 0.0515661680871934 )
( 15.869067205419553 1.8250689803479363 0.0286875242819831 )
( 15.659289732461607 1.966090013534592 0.0172195229623523 )
( 15.407117569823376 2.157353789242638 0.0113612114716898 )
( 15.179697426344088 2.2969639613767785 0.0149349119061402 )
( 14.956254175027198 2.433630895284207 0.0248307387086683 )
( 14.73269290509764 2.5718431638329657 0.0364131330818643 )
( 14.49834069465635 2.7179286876802995 0.047271678844422 )
( 14.256330390160956 2.879402584245839 0.0570911978910022 )
( 14.008436032327836 3.0526782095938936 0.0655240154479624 )
( 13.754763269889889 3.2462086851780594 0.0714858827895905 )
( 13.492358820855744 3.459818792555056 0.0735979075623608 )
( 13.227717985718026 3.665056971543149 0.0731623943874267 )
( 12.973978374383435 3.850317533071416 0.0705825916903081 )
( 12.737537595848485 4.002201154664541 0.0654789161756023 )
( 12.51094329862594 4.134078318520277 0.0604668049032338 )
( 12.28505353340584 4.274749816810487 0.0563362865789484 )
( 12.053353973528845 4.4331081745331895 0.0534350082397892 )
( 11.8127820554263 4.60761989332395 0.0514557364795945 )
( 11.584102648480147 4.821493849755864 0.0482275236470944 )
( 15.771591822449423 1.777307197161662 0.020538168115146 )
( 15.55441485381545 1.918060765996548 0.0114143249519337 )
( 15.2911351451586 2.1067356754715822 0.0088596384301106 )
( 15.055344747955775 2.23864430839478 0.0151281504678123 )
( 14.826709651366723 2.3673171271654305 0.0254835913340351 )
( 14.596002730862295 2.5108688621759487 0.0364623963402856 )
( 14.35200237862836 2.6539591338204924 0.0465028760476284 )
( 14.093509492694274 2.8107244660978616 0.0560274029639424 )
( 13.831526842207245 2.990648504025263 0.0645161873306216 )
( 13.562542174446367 3.1837532852852246 0.0685321398858612 )
( 13.275510979953534 3.4044625118659964 0.0694432338129964 )
( 12.987887428425818 3.6172123532526097 0.0683037752439428 )
( 12.726041243672537 3.7983337704818 0.0647130743364368 )
( 12.485763028518992 3.9509395092646966 0.0607565169667123 )
( 12.247475224023542 4.091319900978511 0.0571745658849681 )
( 12.001706984823132 4.239987443415756 0.0535444071554388 )
( 11.742484837582296 4.40627529075796 0.0516676602417396 )
( 11.48606368368833 4.605869264762129 0.0483288042885971 )
( 11.285910473438134 4.87238876564713 0.0432806442056708 )
( 15.68408879511172 1.7285690885383718 0.0138316715157507 )
( 15.454951125636368 1.8658800099237705 0.0067913245807115 )
( 15.18605301861554 2.053273665711886 0.0072921421461679 )
( 14.94872126423614 2.180841630748372 0.0154263335595747 )
( 14.71213874278955 2.3061379036839504 0.0262509833529003 )
( 14.46781604906385 2.448388734436026 0.0370562650782076 )
( 14.211512698398892 2.586223093514033 0.0464704387078479 )
( 13.947543096347466 2.7417709490903506 0.0548817296619307 )
( 13.669799368658508 2.9262721556944955 0.0621303941786175 )
( 13.377510495606948 3.1170081984032803 0.0652287129614359 )
( 13.078754740561198 3.335016908372091 0.0655410995556554 )
( 12.77731853945922 3.563390371777277 0.0639759463176755 )
( 12.504753053733882 3.747210207130414 0.0613616362388211 )
( 12.251471415025309 3.897644861560545 0.0585534741795531 )
( 11.991890841251312 4.046649638589453 0.0547393668685 )
( 11.715714425240794 4.201585890641965 0.0514931042662054 )
( 11.439976709375818 4.386184803281251 0.0486495360974134 )
( 11.199228392596249 4.626701609327585 0.0435152296173155 )
( 11.040657126285032 4.9498532676624265 0.0404626728495604 )
( 15.600085190582266 1.677843688090282 0.0084290239626247 )
( 15.36390549955143 1.8112878410697413 0.0036839108874236 )
( 15.089254010395058 1.9936408368200675 0.006385486837346 )
( 14.85145595450061 2.117330658537597 0.0154045621198076 )
( 14.608748547665384 2.245340737379069 0.0263434728670601 )
( 14.352038493070204 2.385155495786995 0.0367772864324792 )
( 14.086027831768371 2.513546593141458 0.0458199140492895 )
( 13.811350331831024 2.6721397399377094 0.0534513173034208 )
( 13.51603606306754 2.8617882235309278 0.0594566996960287 )
( 13.206405993814132 3.0570464863237725 0.0620923338741961 )
( 12.888969972776986 3.2697870306538843 0.0622285080393493 )
( 12.57386061896344 3.490006454848035 0.0613058494184891 )
( 12.29042117182198 3.6809840073000144 0.0595544378550396 )
( 12.016830909959126 3.842267731469013 0.0567363692019195 )
( 11.731953332235951 3.9916092774880862 0.0533229598388013 )
( 11.437542202688242 4.156495827986892 0.0503387561569046 )
( 11.159056434914817 4.371449612631958 0.0456215441228852 )
( 10.954353615042464 4.667827139140125 0.0402905275059572 )
( 10.798033763608828 5.026172595606717 0.0386279949124975 )
( 15.52334543819297 1.6244222220071125 0.0036759238699013 )
( 15.283032125063958 1.7530801016000237 0.0012831285079183 )
( 14.998266901831556 1.926709993560345 0.0060714391765827 )
( 14.759995223057109 2.0506691470822576 0.0153502338622269 )
( 14.51033383974498 2.176868400166033 0.0255692208070351 )
( 14.240242229632392 2.3159913357438846 0.0361980376302071 )
( 13.974346725149555 2.4451184287913708 0.0451406612825077 )
( 13.685755747025537 2.596886102115734 0.051980685156491 )
( 13.369519485206066 2.787767580046161 0.0570672192517607 )
( 13.04138773811139 2.992141918645079 0.0590783806954777 )
( 12.701051886935398 3.2099887060424286 0.0593771374977539 )
( 12.379899775726182 3.421224653621614 0.0586625518644199 )
( 12.078826309305123 3.6088053093137575 0.0563027793402848 )
( 11.78033188658225 3.778822764353231 0.0542184340137278 )
( 11.481669406524832 3.938063381561423 0.0525190266531136 )
( 11.182667044691888 4.12804157006097 0.049786035122758 )
( 10.91409928844249 4.384962266667834 0.0438381001493435 )
( 10.729138584597395 4.725626463423638 0.038450672091076 )
( 10.46753773133426 5.050178170715308 0.0351703667919584 )
( 15.459014129483274 1.5685064724921038 -0.0002710618498148 )
( 15.208009521577576 1.6890066444805394 -0.0013588533113769 )
( 14.914486160561344 1.8572962584201091 0.005489272863614 )
( 14.67186821283262 1.981628987256339 0.0153234030296768 )
( 14.416646188492363 2.1077504369106967 0.0249958683215662 )
( 14.137874175046012 2.249354972578098 0.0354425657815911 )
( 13.86030615357537 2.3787793916899496 0.0443054306773851 )
( 13.56421784679914 2.523055850489527 0.0508946441160121 )
( 13.236468382299792 2.707933616678126 0.0549646982411109 )
( 12.887108921430316 2.9111096509715444 0.0561272897753216 )
( 12.530365934164658 3.1387255583038045 0.056486398767851 )
( 12.199174403071808 3.357482090655348 0.0553033789305211 )
( 11.87531796611045 3.5418027126707305 0.0526372807191014 )
( 11.55730713744121 3.709623513547251 0.0510839768523143 )
( 11.24244682194924 3.896127165662756 0.0508301318248905 )
( 10.939826176014655 4.116955271927036 0.0475899900688863 )
( 10.693868527013636 4.4140067191492784 0.0407322631426558 )
( 10.464285140336722 4.77606695793964 0.0384160308988484 )
( 10.003007800561909 4.997261154309543 0.0326815001915699 )
( 15.39575667580404 1.5065682714536328 -0.0040382839370555 )
( 15.142193569562412 1.6261865800662312 -0.0043208615611244 )
( 14.845625476918178 1.7883251193828622 0.0035859539393282 )
( 14.592142430396876 1.9047805335974024 0.0141961961651867 )
( 14.330949753998809 2.033076940236243 0.0246065316884692 )
( 14.047864256679832 2.179280075296792 0.0346623380371335 )
( 13.756074200766218 2.305370667385149 0.0428234330917357 )
( 13.45245185159704 2.4443621200563164 0.0489683995957929 )
( 13.106053219164004 2.6298322753356724 0.0530110005987425 )
( 12.740269235082268 2.834316194269816 0.0540761574263531 )
( 12.370006647152742 3.0622191513438324 0.0538387553471247 )
( 12.014778290107127 3.2864915195031443 0.0522891714859102 )
( 11.68061325065665 3.478816502626874 0.0507680618620872 )
( 11.356543544375176 3.649148416587064 0.0501996834679335 )
( 11.02374766899856 3.856854785722631 0.0486106945933641 )
( 10.712503430675188 4.114589897914925 0.0434180671004553 )
( 10.474010324695731 4.445510536216179 0.039089996473516 )
( 10.149669107485188 4.795890166306304 0.0383779120628726 )
( 9.37665751228914 4.83613315037342 0.0301909122108082 )
( 15.336065276358005 1.4432694994856308 -0.0079182551969662 )
( 15.081730031804153 1.5643474084970257 -0.0060373524967186 )
( 14.781840227172273 1.723889598556566 0.0025610548415735 )
( 14.5238091067775 1.8364241847151164 0.013090130280682 )
( 14.251988225357778 1.9617864176737376 0.0245425834404807 )
( 13.953904705678104 2.0984540378261625 0.0346472366847391 )
( 13.652956361776054 2.2244629995605787 0.0415846959611905 )
( 13.342769358753156 2.361840842789618 0.0464293877115318 )
( 12.97174556489522 2.5487752133026795 0.0507141779923548 )
( 12.59072279295564 2.761418735584465 0.0524769418066476 )
( 12.21727503579905 2.9855117129880804 0.0520761057165129 )
( 11.85223642815557 3.212158626429112 0.0507788798978379 )
( 11.505446082939889 3.41527992758122 0.0502052798665828 )
( 11.15685912289377 3.595555428532491 0.0506420602286458 )
( 10.816186928077768 3.815598508912393 0.0482669126361168 )
( 10.507707364535264 4.110010142273598 0.0428543120495114 )
( 10.2215573504871 4.469582749595641 0.0393994833610886 )
( 9.81082829345248 4.787521232243268 0.0355664555014099 )
( 8.533934478808185 4.518531727947729 0.0276284933507403 )
( 15.283075461994418 1.3867615407444505 -0.010927862084825 )
( 15.022884866435987 1.5038900494197334 -0.0068635363308076 )
( 14.719464075429906 1.659012987828832 0.0024334248572513 )
( 14.461379838585056 1.7716925008906437 0.0129222623586956 )
( 14.179272060807056 1.8914642342027168 0.0239646378826101 )
( 13.871524069302367 2.01806825498339 0.0336486800238409 )
( 13.561581511032594 2.1495711560881308 0.0403708571893449 )
( 13.235694582409844 2.2948046093510666 0.045235946912455 )
( 12.845600152552477 2.475461860708517 0.0491216051777009 )
( 12.444490630823328 2.690311497188781 0.050902982788119 )
( 12.064291903696152 2.91001624232018 0.0509500417311184 )
( 11.697116007199243 3.1247059689492693 0.049627614713784 )
( 11.333528526413248 3.329443520024196 0.0499131307142671 )
( 10.963012975087867 3.5296494773829328 0.0494693807153706 )
( 10.612321956261807 3.7752789014049535 0.0480060435621929 )
( 10.29748425346454 4.100595600898472 0.0459962463480382 )
( 9.935537102917753 4.470859204424826 0.0419123205317837 )
( 9.28367434431492 4.661664824382155 0.0365036190966184 )
( 7.684813149824551 4.164088581718868 0.02876159626156 )
( 15.236940398532592 1.3274086780858887 -0.0132907966643043 )
( 14.97219997982011 1.4435812465330689 -0.0080698653490216 )
( 14.660036601553372 1.5949525908083984 0.0017886368689858 )
( 14.398218881024 1.7018179105417015 0.012237962718501 )
( 14.11076618416677 1.8219482966838991 0.0230161148352875 )
( 13.802965701886269 1.9511954865432772 0.0323578162070178 )
( 13.489271063035646 2.0821128190308245 0.0390894512928995 )
( 13.141140057692647 2.225920036749186 0.0441418770998251 )
( 12.739458253596654 2.405261055352478 0.047524338816077 )
( 12.329564051947097 2.6182275145110965 0.0495903903022657 )
( 11.93105914436464 2.8365360338852965 0.0496078419017268 )
( 11.538319446549126 3.043606849552707 0.0481485121289994 )
( 11.154449401699706 3.243812256543807 0.0474715943123777 )
( 10.77297955546188 3.4582442505395434 0.0455807116891687 )
( 10.416065583203906 3.736580584738447 0.0449566004205876 )
( 10.077023618233826 4.099193183947654 0.0442053357806968 )
( 9.644495206705471 4.456007788171228 0.0424494488407012 )
( 8.672274982110281 4.447368698492507 0.0391418579122693 )
( 6.931954146892525 3.826188304584413 0.0285021521952244 )
( 15.196238180820114 1.2649581366150022 -0.0154029602992373 )
( 14.931067246335594 1.3808468692954503 -0.0092812978845852 )
( 14.610143212006736 1.5316382128084758 0.0008828641771211 )
( 14.339450134495683 1.6333014538163837 0.0113696138727881 )
( 14.044094864702569 1.7495025440192449 0.0224045364782938 )
( 13.732780317016552 1.878704307247402 0.031384755028129 )
( 13.41182099399275 1.9989668935699203 0.0374529953034519 )
( 13.051499621544744 2.1417369909823343 0.0427926331032301 )
( 12.650236315694164 2.3312024654950627 0.0460712838692129 )
( 12.231929351587556 2.541904675116939 0.0477296288838277 )
( 11.810586649781822 2.763369802667385 0.0474598228558469 )
( 11.391536060050006 2.9655846296943924 0.046561812848695 )
( 10.989284092644908 3.1632906861561345 0.0438128576780879 )
( 10.586951036349626 3.397211607828819 0.0415207709349543 )
( 10.217533455052154 3.697658948626895 0.0429981105878173 )
( 9.828380245120035 4.07815245017319 0.0413276906027498 )
( 9.29844611110262 4.391351700995569 0.0388411542621776 )
( 8.132434739921989 4.226725445246992 0.0375804978020928 )
( 6.21431190576763 3.4691764693018983 0.0262170509518511 )
( 15.160464829042107 1.210892074210435 -0.0170806578580652 )
( 14.892221585709525 1.3212151105865306 -0.0099315339081243 )
( 14.565790585573346 1.4658266023607966 0.0003274729859408 )
( 14.2881093363218 1.5664358598839538 0.0106805894991403 )
( 13.98504837793988 1.6760441456870778 0.0218710726566189 )
( 13.6695174495186 1.7968698960336291 0.0298183342501564 )
( 13.334474726360838 1.9128739853652228 0.0355797417948016 )
( 12.966404556123877 2.0635851373567244 0.0417165650303552 )
( 12.564648366792534 2.2564592163428574 0.0450562570351738 )
( 12.125040646833336 2.4613915975957563 0.0456437511960918 )