/*--------------------------------*- C++ -*----------------------------------*\
| =========                 |                                                 |
| \\      /  F ield         | OpenFOAM: The Open Source CFD Toolbox           |
|  \\    /   O peration     | Version:  2112                                  |
|   \\  /    A nd           | Website:  www.openfoam.com                      |
|    \\/     M anipulation  |                                                 |
\*---------------------------------------------------------------------------*/
FoamFile
{
    version     2.0;
    format      ascii;
    arch        "LSB;label=32;scalar=64";
    class       volScalarField;
    location    "0.0005";
    object      k_LES;
}
// * * * * * * * * * * * * * * * * * * * * * * * * * * * * * * * * * * * * * // 
 
dimensions      [0 2 -2 0 0 0 0];
 
internalField   nonuniform List<scalar> 
13597
(
0.244558202406069
0.2384197253607045
0.2233135757753449
0.206300487246709
0.1945079466265142
0.1857397956980915
0.1785872125521904
0.172183338330246
0.167297242568971
0.1640948581592521
0.1613506815058921
0.1603910185648951
0.1610956655431799
0.1621784511761644
0.1640337580969422
0.1668170310988811
0.1697960639882345
0.1719764068337183
0.1737931823072146
0.258690768190495
0.2492039485341645
0.2256925748352545
0.2035192797357748
0.1894078848046528
0.178118821094817
0.1692105241433661
0.1630016716397999
0.1591642498077344
0.1574324042581632
0.1577812729958339
0.1600081008045387
0.1641085882435116
0.1690411655717163
0.1739992930425433
0.1794231984116548
0.1843534566279001
0.1880708317049772
0.1908544709919472
0.2651931149616099
0.2513947698044751
0.22225525186857
0.1976054443209135
0.183891469987381
0.1744692232993649
0.1682259807563597
0.1656573249682771
0.1660675065819166
0.1687636191088945
0.1735732863232759
0.1800229389814178
0.1869820603254141
0.1931158145986143
0.1981315289883464
0.2017847549928946
0.2041640177579103
0.2053871786471914
0.2058814663244034
0.2625595951651849
0.2441213318589025
0.2137221364318416
0.190339722091536
0.1786902870929896
0.1725358257418359
0.1707068100210308
0.1724576421378618
0.1762239239031367
0.1813845166795652
0.1870649267309927
0.1922672978203344
0.1964552933410995
0.1997485418615553
0.2017445585869756
0.2024465265022431
0.2021847416996608
0.2016532614016757
0.2009587641677094
0.2531096305601893
0.2298377934598337
0.2004844957848891
0.1814008689741724
0.1734438340193994
0.1713821125762828
0.1731043893725999
0.1766487928071688
0.1808764279760124
0.1853241799701151
0.1894882625733527
0.1924711074344841
0.1941957080361099
0.1954212867682968
0.1953973798753802
0.19495705420016
0.1943242615293847
0.1937132364149341
0.1930838869587138
0.237832692047736
0.211920586220198
0.1852009393672174
0.1726264039152331
0.1693816371194967
0.1705873160985415
0.1741106279702743
0.1777732725551586
0.1811814368495886
0.1846095161210107
0.1876471133599472
0.1891090238004536
0.1895207512707898
0.1896432208245268
0.1890451088540556
0.1883053998635918
0.1878027233358629
0.1870144775773115
0.186205927222019
0.2181835085739657
0.1932666093389275
0.1732693143893828
0.1670015452683941
0.1676698103499625
0.1706366161875606
0.1741957839050751
0.1778386570739104
0.1809294561778412
0.1835345411478369
0.1850808131365523
0.1856426861811927
0.1859966176068389
0.1858683617259906
0.1851541169388311
0.1843466708330186
0.1833571613394667
0.1822475160906387
0.181048883822403
0.2000136382006812
0.1785135269233065
0.1657291826247181
0.1644424891679119
0.167299197746076
0.1718299976177461
0.1757469657604081
0.1790507957666641
0.1821005742418864
0.1838871470186963
0.1844329197850207
0.1845968346113423
0.1845201444486542
0.184084424630232
0.1831710923992461
0.1820872569987959
0.1808284524155519
0.1796853039159586
0.1783680471008329
0.1845922698885356
0.1675990054047169
0.1611471901005723
0.164140634560953
0.1691130145132464
0.1745151757404119
0.1790422406060339
0.1826678367065877
0.1853432198794389
0.1865339769410134
0.1865218527206683
0.1857154142908234
0.1844192341543316
0.183601649699965
0.1827330906881313
0.1815982602666533
0.180626598168757
0.1797904291391589
0.1789754346544075
0.1724221848714147
0.1608628210744526
0.1602022571488737
0.1667117312690005
0.1736677024207495
0.1797489032211168
0.1845596277275518
0.1880465695425369
0.1898756685399862
0.1900429654821894
0.1890610830163384
0.1873068289174748
0.185547865720998
0.1844664792769529
0.1836374153711205
0.1830350387540652
0.1828492552930293
0.1828725125186035
0.1831612527018495
0.1642550803181479
0.1586498522026862
0.1629984203211257
0.1713603197413417
0.1790319057055151
0.1858903119811995
0.1911883241176243
0.1940376551816918
0.1945601198026259
0.1937144791748883
0.1916781249754565
0.1893025182919813
0.1876283820846693
0.1866559414422165
0.1863863293718269
0.1867618339950053
0.1876868465182004
0.1890254329530807
0.1909427216592165
0.1600151068200985
0.1599519757273476
0.1686045026799212
0.1781280249762009
0.1864658434632732
0.1932626603580593
0.1976784592166177
0.1994882599955293
0.1987975342855779
0.1971294652834893
0.1946376261965859
0.1921563677606094
0.1905434915385824
0.1901338780169605
0.1909966810327666
0.1927157891205877
0.1949320190937972
0.197711105324661
0.2015229149381459
0.1599574810386415
0.164091174578371
0.1755080305478644
0.1864407466470736
0.1950915129125259
0.2008546184986194
0.2038422256317208
0.2046432960230166
0.2034605515635494
0.2004721962139532
0.1974531907668445
0.1953921791098083
0.1944115802089364
0.1951446408114552
0.1972540356446925
0.2002034112432557
0.2042346041276031
0.2091646662407498
0.214455211988915
0.1631887890442855
0.1700863521856936
0.1831020997853152
0.1949347365049186
0.2030615314277383
0.2075334906927629
0.2096076083235141
0.2093372865522334
0.2074215506531118
0.203966572420107
0.2006419421871353
0.1990134731485211
0.1991660733643569
0.2012296402761264
0.2046776917946341
0.2093622926347204
0.2155343216049592
0.2225407894899489
0.2297487135737251
0.1683187939005819
0.1774640184781096
0.1925515877502241
0.2035730394936682
0.2107463980840395
0.2143483847743831
0.2150976988283895
0.2134622851326502
0.2106820073949047
0.2073010618737075
0.2041479542384605
0.2032958436820434
0.2049184119351258
0.2083351217079412
0.2135581001250899
0.220495281813751
0.2285781887915249
0.2375873263388871
0.2497516814366266
0.1746901112421867
0.1851987003416232
0.2012003941263868
0.2115001504857506
0.2180489320048386
0.2205871930135932
0.2203596774093675
0.2179191434040873
0.214123478333565
0.2106156824446577
0.2080814397793969
0.208366169177934
0.2114437810678675
0.2165454262458454
0.2236950257337192
0.2324579180803201
0.2427578148323871
0.2562391938458959
0.2777522409964939
0.1811890554418208
0.1933393712233833
0.2092443584621506
0.2185403721097608
0.223890656067682
0.2256782366833423
0.2249561169465305
0.2222213519500025
0.2177050822490777
0.2144038959853794
0.2126600473545842
0.2138060500470807
0.2184734887214757
0.2255405968633433
0.2344895662601185
0.2455621095277626
0.2597872239095175
0.2811126060446819
0.312050467327975
0.1884847592163263
0.2013924387002293
0.2171759684665268
0.2255494008587055
0.2294702743315556
0.2304702292889499
0.2290476168517887
0.225415335650232
0.2209646024785353
0.2179921855649721
0.2172033444310457
0.2198535069769187
0.2261997495257996
0.2351588634183344
0.2463647339595639
0.2602615231814155
0.28096767884987
0.3121167923324636
0.3432735766731585
0.1963337615672373
0.2088961773197138
0.2245598103291504
0.2321621502179626
0.2353155197958631
0.2351285416042582
0.2323418692742376
0.228032746883073
0.223968640911475
0.221506745629179
0.2220099343621095
0.2262332204797745
0.2343729549529847
0.245722012642812
0.2593163064432213
0.2776726024916824
0.306998900961545
0.3468308330867043
0.3674696064194221
0.2038214120196274
0.2168187030272388
0.2318469164955853
0.2380012884597846
0.23996273326251
0.2385740618273996
0.2354425999212163
0.2309993093071155
0.2270343318651029
0.2253289815979702
0.2271760986768926
0.2332162706658758
0.243192737717356
0.2565795243220318
0.2738709969974657
0.2985550783078278
0.3374423829814681
0.3808135630861287
0.3827391860112726
0.2115049287514484
0.224153984589141
0.2378715168407003
0.243139053914817
0.2438779517754508
0.2413810552724644
0.2385193709564394
0.2341499214646312
0.2301708391654837
0.2291158735510757
0.2326561326703951
0.2411658317333243
0.2526166029201618
0.26741140938352
0.2894230004187406
0.323072713746977
0.3709039867732735
0.4113337452029268
0.378916513849078
0.2182101320813614
0.2296691401097182
0.242631245747271
0.2469781227427488
0.2469506949055516
0.2443625780507074
0.2413273866317505
0.2369078725968156
0.2333035863141405
0.2331537179662408
0.2381253336036427
0.2480925157631172
0.2610950290159408
0.279121670186661
0.3062600277579977
0.3499170564467006
0.4044969107484306
0.4362237864997838
0.3507982505119718
0.2235805992168008
0.2344216241432637
0.2467953552902844
0.2500560535521643
0.2497129138575419
0.2470866153933623
0.2437416742491271
0.2392250360256919
0.2361921702251503
0.237306357737327
0.2438673560309808
0.2551650087333741
0.2696514852913252
0.2916617335796498
0.3267468615637701
0.3794520280894818
0.4369039068737625
0.4423721698757156
0.3201503589591624
0.2286225339447821
0.2391306707146575
0.2509963988683608
0.2538874750411411
0.2526408469704418
0.2490352210112244
0.2454111185605036
0.2412074545781748
0.2387588437791749
0.2408416324598566
0.2488865336261543
0.2626182977312742
0.2796135740557886
0.3056340910204125
0.3492818380334849
0.4100100454704894
0.4664226702019268
0.4348061367457599
0.2919397915477831
0.2334462757270932
0.2430221904160193
0.2547032871781685
0.2574991897411098
0.255025355284209
0.2510142536054491
0.2473431256594287
0.2430359665976735
0.2410835968014383
0.2443712777895144
0.2536305488550837
0.2693290120922033
0.2894380311276625
0.321802226090791
0.3723059991046383
0.43832207980929
0.487189915137115
0.4243478784727315
0.2608994547923339
0.2378807286062542
0.2464830179804091
0.2578888786514173
0.2600077454541183
0.2568864402456811
0.2534626566764993
0.2496051688404132
0.2447113453669574
0.2433974914967455
0.248299550089538
0.2588972809388711
0.2758896707153096
0.2992277186535543
0.3376861093086491
0.3947831425602245
0.465153488638226
0.4928747092860839
0.4034042163709735
0.2382572060996283
0.2416783627520156
0.2497924834766791
0.2604959264438991
0.2618796433127663
0.258684208657662
0.2555892186418704
0.2511069566705425
0.246310146590852
0.2460227974832357
0.2520137316648612
0.2639930617924019
0.2822286806629105
0.3089025437195625
0.3521604268936384
0.4171060732224355
0.4892559895216399
0.4945797614043341
0.3805191608493403
0.2193456679387468
0.2449868755183357
0.2526893220337153
0.2626709483048591
0.2640416646728601
0.2610244351358931
0.2574472103813399
0.2523537935614091
0.2483239971835396
0.2489611177893852
0.2559618199790354
0.2695534006531509
0.2884805791140685
0.3180855834813454
0.3670080416031633
0.4411109815315442
0.5119981022370758
0.501730631092845
0.3653155941331077
0.2033747386813479
0.24800539756061
0.2555159615829567
0.2648274403858212
0.2660572854860916
0.263026600085148
0.2589295929957448
0.2536283036134945
0.2501931131316432
0.251538427537082
0.2597949489251588
0.2747098000421195
0.2952530410204712
0.3296812106515527
0.3828945252440435
0.4620987719037995
0.5287366059105582
0.5018858269926719
0.3520977386252528
0.1939589203528854
0.2504692486391618
0.2576134716671768
0.2665263055982739
0.2672950514855454
0.2643282446196289
0.2597442276051417
0.25449421226633
0.2514292258619259
0.2535318644003067
0.2626105347958468
0.2784574734905547
0.3017653688046042
0.339941657916177
0.3980292899832896
0.4800262392196007
0.5275698762003751
0.4844418309189198
0.339382972372666
0.1886999901925978
0.2529461437045623
0.2596473779620776
0.268473407499751
0.2687868549569066
0.2652616773775268
0.2602641674697405
0.2552721371274384
0.2526829146999131
0.2558055885406573
0.2653999528556562
0.2821270722228936
0.3080319261507916
0.3475029864794656
0.4114935226246893
0.4965204429842782
0.5246361642271535
0.4663942562209886
0.3277094426536124
0.1850372146567795
0.255412944049131
0.2619405385439184
0.2706905300891531
0.2703090769726028
0.2661742085488614
0.2612198270181444
0.2564402990346739
0.2541860408215535
0.2580636529343011
0.2684255319295377
0.2861389822737352
0.3142794596492269
0.3560213926495014
0.4272263065091718
0.5118591775004627
0.5306820902531947
0.461948144579193
0.3176381108312668
0.1799956114182816
0.2574679224364594
0.264109934517965
0.2722535147196609
0.2712623561545937
0.2671022198157578
0.26253022532158
0.2575852440970725
0.2555967417498413
0.2602565790838888
0.2715383677960872
0.2903042350368617
0.320251006401612
0.3640956505870359
0.4404620977632937
0.5267841529053747
0.5394793396874419
0.4622792356310573
0.3110101297147867
0.174393603539353
0.2597448174966064
0.2660284015080705
0.2733366638782865
0.2720234275991164
0.2680577712369089
0.2635511556792002
0.2584748970410781
0.2569899371033826
0.2624202788478154
0.2748065845220094
0.2948637278643193
0.3259289426073954
0.3712162740608388
0.45003506005174
0.539991334648495
0.5496099901283537
0.4643514093146317
0.3071318803261242
0.1712964801111456
0.2622199774813878
0.2676354110189331
0.2745571306945571
0.2730931492339108
0.2694040712300825
0.264329796592904
0.2592293072653807
0.258167003061476
0.2641124981857713
0.2775734215822751
0.2985515168866354
0.3306038785459503
0.378532298420373
0.4601238857592957
0.5495083702903608
0.5551635214000701
0.4646999793828657
0.30386946212663
0.1694383678998862
0.2644614445539668
0.2691013338509791
0.275763955164374
0.274281741160476
0.2706320578785005
0.2652833008952172
0.2599933984029985
0.2588679853577387
0.2654883503073324
0.2797433636782069
0.3013920857603938
0.3345443100664362
0.3849762920060864
0.4681266757669225
0.557567430903342
0.5598361291182358
0.4630707339177532
0.3000650156565084
0.1671251429645849
0.2670573558417062
0.2705511344101341
0.2768782735760176
0.2755699025701101
0.2714558388500988
0.2658320859118221
0.2608231903904429
0.2598914286764082
0.2670555439746333
0.2818740830900528
0.3041264545201913
0.3384851335468539
0.3906358060325119
0.4752277568428132
0.5645839775621339
0.5628801370807407
0.463799451056438
0.299525957424399
0.1652362799227647
0.269178696391952
0.2718070226990634
0.2779744688831467
0.2766761366280086
0.2722802200594695
0.2661006953036576
0.2613576995288595
0.2609346286020481
0.2686458963064
0.2837200495800954
0.3065400500916087
0.3421373655479987
0.3972517432931114
0.4828684040022865
0.5681672656784379
0.5639021133961594
0.4628988452314473
0.2992089699363917
0.1644496806780481
0.270252194106552
0.2727555454687909
0.2787094079491116
0.2773777177543891
0.2731234636368692
0.2665478920251284
0.2619329439364135
0.2616626576053968
0.2699224103459085
0.285268537884915
0.3084600453505593
0.3451314336671012
0.4037939039009575
0.4915221303353544
0.570168530408679
0.5624974203504044
0.4589375534893903
0.2964588045618571
0.1643924311216843
0.2715740136626046
0.2739414182895624
0.2791405358977381
0.2779494687008255
0.2738455661835255
0.2669106380206136
0.2625886630924253
0.2623388877057074
0.2707968099323761
0.2866686041143145
0.3099678011631443
0.3474869294345178
0.4078982502401919
0.4980950982758124
0.572366869332462
0.5592409897433284
0.456164964157646
0.29479570461117
0.1644149837045001
0.273257406315893
0.2754883037473612
0.280044262451772
0.278674249281337
0.2744890145066408
0.2673782503859983
0.2630110696660139
0.2630643978504445
0.2716376265520263
0.2881388825713372
0.3118871527928203
0.3502529397806211
0.4115341306424777
0.5021881730176136
0.5730309389610225
0.5553827429710302
0.4525636625815926
0.2927047929661866
0.1644674897296427
0.2745480455198502
0.2764007938662766
0.2808189188085685
0.2795083543102994
0.2749745709877856
0.268023448897619
0.2635468874596436
0.2637080056069537
0.2726896976072464
0.2899155344369425
0.3140554126753407
0.352964534833345
0.4149354898390777
0.5048069350755077
0.5739029477340574
0.5541666392314388
0.4489754177820804
0.2897649355432814
0.1640473261621206
0.2756245627381198
0.2771299236985945
0.2811540889495142
0.2797196539570807
0.2750183071562933
0.2683803747570173
0.2639753397301361
0.26418424195858
0.2734331186367633
0.2912974674876789
0.3158404629011045
0.3546651014359303
0.416055967012672
0.5072132204169751
0.5774559446848615
0.5543522466706009
0.4460740751415725
0.2872929386089152
0.1626376049290502
0.2768890608647689
0.2784713663329183
0.2821311998795337
0.279974087264948
0.274984504922199
0.2686408258501805
0.2642487523981436
0.2647190536815804
0.2742208263236453
0.2925470102303725
0.3175346901362527
0.3566435174663094
0.4178109753241539
0.5097284459208425
0.5769009120063173
0.5506256457259613
0.4436177272852795
0.2861187004506443
0.1621245944630593
0.1867204952632148
0.1844255116853245
0.1808391614105705
0.1786043931210648
0.1781626796036704
0.177821587727089
0.1782658953555104
0.1797681333127133
0.1818598101564166
0.1837277909049672
0.1858307368228487
0.1892143217869512
0.1925210388076248
0.195841190909715
0.1991247042739179
0.201730504020304
0.2051235890894635
0.2083348137637587
0.2111927269483423
0.1790344759443595
0.1759565949044999
0.1716754797060515
0.1704115356698031
0.1712285359458958
0.1723298477305504
0.1744128831653112
0.17672084423673
0.1788159349737657
0.1807522101848511
0.1830767832770138
0.1865129052739905
0.1895971028939396
0.1923632230061077
0.1954044287078869
0.1976859403130348
0.2004803355788925
0.203614332322426
0.2062776619130849
0.1744245788943411
0.1718819356190876
0.1687733122802986
0.170039539440211
0.1725958142645018
0.1752522826852994
0.1778935365663436
0.1802866943308579
0.1822897214733861
0.1844135597264511
0.1873840332678676
0.1905274262841942
0.1939632491388094
0.1979434266819238
0.2022268786535542
0.2065617928358228
0.2102994959541272
0.2137868546018782
0.2170714294949912
0.1752987080197873
0.1744898060121169
0.1739603739076305
0.1775091496523361
0.1805344978668959
0.1839534270650885
0.187323424739506
0.1901771075193121
0.1922497924690939
0.1946045272088124
0.1988874716539308
0.2035744387570958
0.2090955576877736
0.2156823006009299
0.2213741731713856
0.226859936791552
0.2320841282681966
0.2367942824861356
0.2415797398504965
0.1806714907657698
0.181579292847422
0.1828236122925229
0.1868893345544895
0.1902108279705149
0.1936371617501026
0.1972595353861743
0.2003931858097308
0.2038714012574223
0.2084824561277495
0.2146739850695347
0.2215618192308956
0.2290429414330104
0.2370408136396675
0.2434271589750513
0.2489447761503574
0.2541243703944198
0.2580495385342179
0.261305904456121
0.1875725810557236
0.1890246979927195
0.190237602985458
0.1945999312886317
0.1984896021460586
0.2018836134283018
0.2056229136762524
0.2099308065578834
0.2154074847815664
0.2221747153558236
0.2298246101009719
0.2378245489759351
0.2459645031136049
0.2528481525603323
0.2577023582754798
0.261430089851768
0.2637236200830815
0.2647437502935068
0.2651825822848671
0.1947776251274637
0.1948044686721926
0.1952452452622224
0.2001704786973722
0.2044562492993294
0.208519055953967
0.2137083517339922
0.2195252341555411
0.2264503737531263
0.2338019737086634
0.2414605813465573
0.2486925481312573
0.2548317796634416
0.2595211131888398
0.2622366369359978
0.2637107985396077
0.2637167575516409
0.2628459190816805
0.2616007195483528
0.1992892806565554
0.1973597661433547
0.198507252537395
0.204015471189226
0.2093354216461694
0.2149931684884456
0.2215462648532075
0.2281328303084264
0.2354923050385275
0.2422774939122706
0.2487516750022892
0.2545849184291707
0.2581215443521112
0.260771255235828
0.2620471034490111
0.2622174911798536
0.2613989691648756
0.2600031077562275
0.2583103174169224
0.2011494629781633
0.1988548785965975
0.2013797824626805
0.2082133978406034
0.2147981972634061
0.2216952918109673
0.2292385489194775
0.2365503260023031
0.2431104474984994
0.2485795870908719
0.2531763867459586
0.2571229975909761
0.2595959322084452
0.2608008585903554
0.261051086211937
0.2606313851952624
0.2597568043403886
0.2586801443193363
0.2574849712770163
0.2011578729208038
0.1998749276285947
0.2053786315464595
0.2137883410593138
0.2211818460064043
0.2292305228556626
0.2368632747598935
0.2435313194723466
0.2482945484820233
0.2524491015551555
0.2561262761712096
0.2581564384892935
0.2598267070061194
0.2606270242716599
0.260683288825414
0.2606141104511403
0.2602685881860246
0.2600312880211883
0.2601227143862828
0.2004194425432299
0.2015025533219632
0.2099128494456465
0.2202491935962313
0.2288686355938075
0.2367864132022192
0.2430973611159511
0.2483322188066661
0.251887730494538
0.2548594986969784
0.2576031160910926
0.2593307011023332
0.2603938464847392
0.2610303204494852
0.2616917513552644
0.2623530907588642
0.2631945268127657
0.264377648072085
0.2660691049166505
0.2013987881022835
0.205084218651548
0.2156089310055145
0.227073733406841
0.2360918321440724
0.2431557906300129
0.2484769780387108
0.2523946958599956
0.25501714961149
0.2571048930769168
0.2590049171574753
0.2607969314538883
0.2618331087453495
0.2627211075630355
0.2642138463053582
0.2659369391435487
0.2681575471269386
0.2711599890372861
0.2751469697887546
0.2038350711101274
0.2101344587583569
0.2234415739505962
0.2350167690327564
0.2433156356568336
0.2491241293276778
0.2530305701617636
0.2555977473623536
0.2574680869966305
0.2590598464676556
0.2603260092244124
0.2621254944909704
0.2636917449506716
0.2654552017594727
0.2680811371678849
0.2712835250532123
0.2754771080250955
0.2809110476862936
0.2877814452214384
0.2080675601551208
0.2174218235007999
0.2320613574889903
0.24272562364335
0.2499398798933725
0.2539081651586885
0.2567324109451185
0.2586580875545413
0.2600395777632016
0.2609720292283622
0.2617720008997257
0.2637512701364598
0.2661744991144648
0.2691691594261893
0.2732356277770097
0.2786425140691729
0.2852062521671143
0.2931532185639782
0.3031214683027866
0.2153886125967135
0.2257120014714985
0.2396075183720186
0.2495235741473555
0.2557845775902637
0.2587031593386455
0.2603561245686202
0.2610866139467369
0.2614745807211935
0.2621550409003256
0.263647091391422
0.2660807681559179
0.2695426778440578
0.274105522773203
0.2798052902018728
0.2875638005683087
0.2968733219487791
0.3078615131218669
0.3238759844573243
0.2243010775189379
0.2344330237113251
0.2477170357583335
0.2564922144713746
0.2612532045014764
0.2631545507517894
0.2628444304582991
0.2627663641756134
0.2626445494073757
0.2633112746543933
0.2655572398688172
0.2687937568067878
0.2735269459261494
0.2799282071735305
0.2880636819997281
0.2978136644033169
0.3100602057645032
0.3269324125382544
0.3531461885729295
0.2324226982601268
0.2428906923457355
0.2562410834671642
0.2625074070207005
0.2655646267449609
0.2658488649666299
0.2645661024091222
0.2645367309665382
0.2642785949137179
0.2650202930001326
0.2674331898822932
0.2718826491815121
0.2782489876214976
0.2864371225484708
0.2970002650830516
0.3095158311148605
0.3260243588000612
0.3520439386649555
0.3880786024396996
0.2406454323606504
0.2508279739288938
0.26357105902502
0.2678825918821501
0.2689019641504322
0.2682224998794508
0.2667708143256577
0.2658848555740772
0.2651825670229705
0.2664226532267746
0.2695180263320815
0.2756397307253355
0.2839616345132995
0.2941696731255891
0.3067998348362556
0.3233618872096142
0.3470673002100898
0.3848610415090676
0.42335095422067
0.2495339782134722
0.2588206525115339
0.2689381539424166
0.2721226920673659
0.2715187967911579
0.2699240629978625
0.2685105266441306
0.2669663628863664
0.2661861252065633
0.2678765538877754
0.2720758715771449
0.2796364883673961
0.2899730788429532
0.3027110509779631
0.3181596030724863
0.3403111840974559
0.3737449118980895
0.4207240622445567
0.4472074342299319
0.2583824463793501
0.266317390394005
0.2734550971505591
0.2754518853126245
0.2738699924609078
0.2712485613647474
0.2694862283783013
0.2675937596553419
0.2672860748969695
0.2697616195830494
0.2751002969327452
0.2840478909141536
0.2964806292758442
0.3119444431326406
0.3311358320297975
0.3597094585987809
0.4047436628620949
0.4529069042633573
0.4574684880860366
0.2661030726462526
0.2724796742915275
0.2775601696254687
0.2780456939518061
0.2760565899483266
0.2730994035791146
0.2702230962488661
0.2680519597320904
0.2681193141098796
0.2712247356703045
0.2780687800532813
0.2890211865300025
0.3034398315033894
0.3218073610535454
0.3459176956604595
0.3826266406162348
0.4372443818928697
0.4816852195581185
0.4508549757909936
0.2728800416032684
0.2771874676952998
0.2815224600233866
0.2805216302493731
0.2774203611315345
0.2744162450810004
0.2708059255365988
0.268520058249347
0.2689144029380589
0.2726745644525096
0.2808450959959888
0.2937878770794342
0.3106763377773955
0.3320165318159929
0.3610381431850761
0.4089015461101222
0.4718511256548537
0.5093095156344232
0.4154170713551561
0.2787127831846111
0.2809904235458073
0.2849505106496887
0.283126101203879
0.2783236104089764
0.2750589415642683
0.2716863591453403
0.2689816468563069
0.2698699229888162
0.2745049673407455
0.2838922237433629
0.2992159130396176
0.3189169187528469
0.3435146989093269
0.3801435210078648
0.4389642502039802
0.5043120389046644
0.5085336577718693
0.3724001362122098
0.2826050077233935
0.2839862472448093
0.2866203392626766
0.2843106460259654
0.2792123938382156
0.2753661170743909
0.2721027843748542
0.269438603922193
0.270717477680244
0.2764020628703839
0.287459257848172
0.3048609408990828
0.3270432643428332
0.3559330026468735
0.4014859633664052
0.4690750233765539
0.5292021017892236
0.4892506812363606
0.337338193216566
0.2859104136743649
0.2862677173709292
0.2879162059360958
0.2850465168453586
0.2802517071874246
0.2758048518130773
0.2719249721331209
0.2692634894462586
0.2712824441511191
0.2785809059188395
0.2916809130798825
0.3106272917144737
0.3352272977990791
0.3700829478060885
0.4231183501044845
0.4942035277043364
0.5433190074767732
0.4749925868848043
0.3025143529739781
0.2881148368767628
0.2872973025343203
0.2886947705784592
0.2857792936274569
0.2811665533703
0.2758966793633693
0.2715894959687195
0.2693250654064614
0.2720882249371472
0.280745547714824
0.2955107998014138
0.3164255950955561
0.3429199320890315
0.3832877777116059
0.4446559791056123
0.516444592078822
0.5384011652181895
0.4439199725365365
0.2709178421741728
0.2892861083092442
0.2878607925536031
0.2891064932753179
0.2861658742869387
0.2815285444118826
0.2755735177537937
0.2711970967737385
0.2697189882219427
0.2729977064660181
0.2825414226406579
0.2989709743266245
0.3219002779391068
0.3507865274582862
0.3950299908194205
0.4635224865888702
0.5366456718116734
0.5354448914236551
0.4151615502590925
0.2448557544673375
0.2900646390807441
0.2880720419016992
0.2892473706972673
0.2862906546107559
0.281223600998049
0.2753962959030192
0.2710273376227278
0.2699321666178723
0.2736143325376496
0.283955557155202
0.302154254995589
0.326331770869431
0.3590282673462006
0.4085600615463596
0.4834970101051825
0.5571739068786297
0.5419583138266221
0.4004385989165749
0.2276080379182085
0.2908968715935037
0.2886528075956675
0.2894779503670239
0.2862609052515015
0.2806461881525746
0.2752813267870229
0.2713778801367488
0.2704025139760337
0.2742702923905434
0.2854114399238899
0.3046315873633379
0.3303126021802867
0.367233392576179
0.4218717746606364
0.5004014744329521
0.5659499612109996
0.5360433006847767
0.3849943670728907
0.2160504444176867
0.2912098127027232
0.2892510210155781
0.2895345371352494
0.2859876473344936
0.2804365891988005
0.2752311628833058
0.2715447121734345
0.270569195121619
0.2746985137658614
0.2865742974431951
0.3069872207355573
0.3354208987918191
0.3759843574728532
0.4328858296242359
0.5135669918233573
0.5615420661419714
0.511570828228471
0.3625283320411054
0.204846978858593
0.2907699427999118
0.2890417672873352
0.2891712008812843
0.2855971219302916
0.2802291169749006
0.274907279618662
0.2713491989502959
0.2704699758857783
0.2750564469108386
0.2876715165973213
0.3091448636682338
0.3394841669164369
0.3812295921713876
0.4417834163766024
0.5277816707218426
0.5588558931894918
0.4890292330858382
0.3422408995852282
0.195291533792136
0.2903877450942758
0.2886897043318763
0.2894916956578829
0.2853594900174134
0.2799545220789088
0.2746727416096365
0.2710605896048092
0.270362206121861
0.2758215088783659
0.2894967155376682
0.311445497798788
0.3428905243503468
0.3856607961101376
0.4515213464512534
0.5410556776765878
0.5626290744962283
0.4816394230528016
0.3290732037913935
0.1869349578611868
0.2906228111216148
0.2882017648720159
0.2898922752700066
0.285570888475829
0.2798318015016914
0.2744875831524712
0.2703859935637671
0.2701077113659832
0.276526017406967
0.2911867655357912
0.3139658707100003
0.3465256949598225
0.3913509687005045
0.4626873207285418
0.5526164625024591
0.5693240934916756
0.4798146695021052
0.3198398364662834
0.1827030088669277
0.2901792989190181
0.2875667137764474
0.2898683914968404
0.2860952163592518
0.2797754159687387
0.2741892704772019
0.2698424920267535
0.2695697836033864
0.2764624155359084
0.2917645303727815
0.3148992296427734
0.3488043376480507
0.3956525607018679
0.4720176749755572
0.5606640534527879
0.5720911967318063
0.4785860731922007
0.3130867202111942
0.1783368803306584
0.2891925977393366
0.2868550974172197
0.2893544162143744
0.2860960552535385
0.2795485152942955
0.2734520670620334
0.2693536458733056
0.2691865019618885
0.2763739813575407
0.2922557417077703
0.3156548675290206
0.3507155526955951
0.3985113619713029
0.4777781370891715
0.566153537843265
0.5750203831378399
0.4770053266401475
0.306446028463885
0.1729646325659026
0.2884354441875917
0.2859262412216267
0.288270089848151
0.2856701789052534
0.2792885421099529
0.272760918258696
0.2687863125488199
0.268924096646247
0.2767441493745303
0.2929434165405024
0.3170581804257862
0.352368475986439
0.4003178759938811
0.4830897812120621
0.5739615944604258
0.5790486197947039
0.4729995698820866
0.3015716068749625
0.1706690559350013
0.287569552094389
0.2851096972301985
0.2871325266476902
0.2850562595371383
0.2787849255497489
0.2723666157199971
0.2682013549049817
0.2683676123700334
0.2769279024855297
0.2933045774950255
0.3175486994256288
0.3535385051083031
0.4033537632887103
0.4886956348307144
0.5797470938373491
0.5803983449858079
0.4698980703825631
0.2993910136712921
0.1699813270605193
0.2864344558431192