/*--------------------------------*- C++ -*----------------------------------*\
| =========                 |                                                 |
| \\      /  F ield         | OpenFOAM: The Open Source CFD Toolbox           |
|  \\    /   O peration     | Version:  2112                                  |
|   \\  /    A nd           | Website:  www.openfoam.com                      |
|    \\/     M anipulation  |                                                 |
\*---------------------------------------------------------------------------*/
FoamFile
{
    version     2.0;
    format      ascii;
    arch        "LSB;label=32;scalar=64";
    class       volSymmTensorField;
    location    "0.0005";
    object      tauij_LES;
}
// * * * * * * * * * * * * * * * * * * * * * * * * * * * * * * * * * * * * * // 
 
dimensions      [0 2 -2 0 0 0 0];
 
internalField   nonuniform List<symmTensor> 
13597
(
( 0.1814854147256291 0.0232115446860885 0.0148589970409652 0.1109666755498435 0.0329908465642286 0.1966643145366653 )
( 0.1819016368951169 0.0255873100462269 0.0182205953760624 0.1067552814406006 0.0351405115024343 0.1881825323856913 )
( 0.1805897784916066 0.0295788540499241 0.0233304187760719 0.0956860107406106 0.0371765964454652 0.1703513623184726 )
( 0.1798962766161856 0.0340070268684552 0.0289517260121788 0.0822398706962931 0.0385132324957357 0.1504648271809392 )
( 0.1797984397281816 0.0366715892579099 0.0335713851299934 0.0726188189713554 0.0382250722553228 0.1365986345534913 )
( 0.1789393330607676 0.037976200926356 0.0377765099547633 0.0658984973839271 0.0368349753223164 0.1266417609514883 )
( 0.1788531148546174 0.0387658076396532 0.0419292305741486 0.0599148075768524 0.0347238323786241 0.118406502672911 )
( 0.1782030535782614 0.0392642228965249 0.0461559675939149 0.0542696251830648 0.0318553900722012 0.1118939978991657 )
( 0.1773240824529294 0.0397617397290729 0.0501405986775127 0.0494323298292201 0.0285340980655726 0.1078380728557925 )
( 0.1774820604128048 0.0400917750747828 0.0539427777035789 0.0455907525387469 0.0249992834285098 0.1051169033669525 )
( 0.1764639495793426 0.0405066427612772 0.0577076540263024 0.0427285546700651 0.0211488772795166 0.1035088587623764 )
( 0.175725698370493 0.0411003679821169 0.0608203438987208 0.0410349625147428 0.0175201468060218 0.1040213762445543 )
( 0.1756754037659463 0.0420178782464092 0.0632969803485252 0.0402516010865036 0.014287190225477 0.1062643262339097 )
( 0.1746477128668756 0.0430397868267073 0.065319039500337 0.0402330115745427 0.0108532282556727 0.1094761779109103 )
( 0.1734914438217908 0.0439825447958306 0.0671446270761487 0.0409268525678984 0.0072219754522432 0.113649219804195 )
( 0.1729478145333 0.0451522372567634 0.0685813599416357 0.0424404820345025 0.0040261512135834 0.1182457656299597 )
( 0.1723988197905676 0.0467859976574649 0.0692699013808417 0.0446708287154685 0.0017587646044843 0.1225224794704327 )
( 0.1704932141286336 0.0482630763454385 0.0690709696723556 0.0468499531715544 -0.0003153134633155 0.1266096463672484 )
( 0.1685936137562547 0.0496298349225888 0.0684169022491764 0.0489838395180117 -0.002400442192322 0.1300089113401626 )
( 0.1926767506280105 0.0208488327129835 0.0307919129599287 0.1317966904326643 0.0458681638329785 0.192908095320315 )
( 0.1926050712246124 0.0234181293921968 0.035615830588306 0.1266826823334062 0.0485172524181901 0.1791201435103103 )
( 0.1876127276337194 0.0284226832789758 0.04220228067064 0.1119298752294811 0.0497975514813831 0.1518425468073084 )
( 0.1824526226868468 0.0329756917633101 0.0485073937972804 0.0975889283341595 0.0492050886626419 0.126997008450543 )
( 0.1791393750429113 0.0351829386564834 0.0532436469025373 0.0884938314666569 0.0463269496842866 0.1111825630997374 )
( 0.1759923519719607 0.0362799484027968 0.0574525966301192 0.0808916635952757 0.041709823937376 0.0993536266223976 )
( 0.1731823135359563 0.0369859961446559 0.0613366219595737 0.0740093194822364 0.0361035401560429 0.0912294152685393 )
( 0.170687833350023 0.0374551763400489 0.0652052237527835 0.0684189729455759 0.0297924541442275 0.0868965369840006 )
( 0.1685225708707113 0.0377987153266937 0.0685576286874773 0.0637480407831282 0.0232770046133404 0.0860578879616292 )
( 0.1668184728553405 0.0380653266633831 0.0717205555647129 0.0600913255905079 0.0168688440026251 0.0879550100704781 )
( 0.1647941153108857 0.0382719454138009 0.0747371359436661 0.0577351819454552 0.0102589914991675 0.093033248735327 )
( 0.1626668744864362 0.0383662940450689 0.0772399083068561 0.0566124026163876 0.0037367754297175 0.1007369245062535 )
( 0.1615640075444087 0.0384522658227301 0.0799180612437733 0.0563318613802439 -0.0020807196178695 0.1103213075623705 )
( 0.1601044458833751 0.039030804915969 0.0823483855822896 0.0569661587079511 -0.0070695180052648 0.1210117265521065 )
( 0.1579734194915733 0.0397097359714482 0.0838760675195756 0.0584543054493132 -0.0112139303133198 0.1315708611442001 )
( 0.1572975511354393 0.0401129915466406 0.0854936247417598 0.0604347850861783 -0.0145286075093579 0.1411140606016919 )
( 0.1573136754106663 0.0406216545828962 0.0871198285858234 0.0627170213363782 -0.0168679185458 0.1486762165087555 )
( 0.1563318912898929 0.0411530953094201 0.0880544351411576 0.0648926145383414 -0.0185853512692656 0.1549171575817199 )
( 0.1554070198995855 0.0415644682275335 0.0884352226500829 0.0667658930251448 -0.0197231802394018 0.1595360290591641 )
( 0.1987060052959112 0.0170295807764441 0.0448744617884689 0.1468173609581546 0.0546445204263078 0.1848628636691538 )
( 0.1961472042286689 0.0186422579516637 0.0500318945271881 0.1407488862818289 0.0563835666349851 0.1658934490984522 )
( 0.1873864865578445 0.0232683854731994 0.0556248560408198 0.1237006996120007 0.0549490295605595 0.1334233175672946 )
( 0.1786797675029759 0.0268418647219982 0.0597708325809931 0.1085905879189214 0.0504315841821893 0.1079405332199295 )
( 0.1731932048833604 0.02792721080198 0.0620620622247926 0.0996563506385237 0.0443187048679601 0.0949333844528778 )
( 0.1692544927148874 0.0288956974740795 0.0640378920518901 0.09146667907418 0.0367322305302989 0.0882172748096622 )
( 0.1654387466567542 0.0295151828691381 0.0656325742376359 0.0842600359394502 0.028631861212154 0.0867531789165149 )
( 0.1615896135828121 0.0295991133723972 0.0667879571324727 0.0793650261312554 0.0209060066584924 0.0903600102224865 )
( 0.1584461126513724 0.0298051876198131 0.0678263919451689 0.075394688578063 0.0136686042396722 0.0982942119343976 )
( 0.1560553190254129 0.0300974071043059 0.0693886060903862 0.0721971890724176 0.0065629014648286 0.1092747301199585 )
( 0.1539493692256084 0.0302065556495834 0.0712034808145802 0.0704593830940319 0.0003179773648359 0.1227378203269114 )
( 0.1525813135521108 0.0300480717220533 0.0727028883260904 0.070011089102417 -0.0052625094736502 0.1374534753083079 )
( 0.1521292887042929 0.0296385102891344 0.0743678173173601 0.0703827013204626 -0.0100595614121832 0.1514521306260726 )
( 0.1518802399864133 0.029555486063447 0.0760584310745711 0.0714565114447551 -0.0135694861041294 0.16289487776606 )
( 0.1519963886603146 0.0296245004346529 0.0772314081839321 0.0731107143114237 -0.016133340354515 0.1711559550049544 )
( 0.1527821751885393 0.0292740111821763 0.0780909246867831 0.0745651451472392 -0.0180161683751881 0.1762221896500105 )
( 0.1538871010152047 0.028987464868696 0.078515988322708 0.0757484425673199 -0.0192245401024819 0.178692491933296 )
( 0.1548144425353475 0.0288585766514255 0.0784565891601498 0.0767327969880473 -0.0200625435873397 0.1792271177709879 )
( 0.1563564566681833 0.0287233135286684 0.0786061678470877 0.0774758317183967 -0.0207691159242181 0.1779306442622266 )
( 0.1973521362153328 0.0125671299425378 0.0552044119793701 0.1563679320585735 0.058672580362317 0.1713991220564635 )
( 0.1913785175500533 0.0133978841816536 0.0587452192461064 0.1485373203215523 0.0588043331251128 0.1483268258461992 )
( 0.1807571091601044 0.0172288589155784 0.0604568240716041 0.1304884339289718 0.0540563801507518 0.1161987297746069 )
( 0.1705527919536118 0.0201663238802374 0.0600884694518419 0.1148665794162273 0.0457528629263955 0.0952600728132331 )
( 0.16294501984118 0.0209858456503531 0.0586217473838452 0.1057526058713717 0.0375344480540139 0.0886829484734276 )
( 0.1569586681787149 0.0221058620790165 0.0572775457344916 0.0979473651049899 0.029205051896714 0.090165618199967 )
( 0.1522661628107823 0.0228807848808375 0.0559226843123327 0.0913343648416936 0.0210526852024295 0.0978130923895856 )
( 0.1484468278648464 0.0232590805768875 0.0548086311859838 0.0866792420035692 0.0139134073473074 0.109789214407308 )
( 0.1454234309075423 0.0239802460984444 0.0545808287198 0.0827998860396176 0.0078035755918098 0.1242245308591133 )
( 0.1434643821411455 0.0248802603972966 0.0548419329567257 0.0796895857896769 0.0021302187937168 0.139615065428308 )
( 0.1425789609009631 0.0254554672803717 0.0554139043329632 0.0777823313792221 -0.0025403139404986 0.1537685611818001 )
( 0.1425408123252088 0.0256098438953564 0.056201821075164 0.0768879623520722 -0.0063849613764527 0.1651058209633877 )
( 0.1435793754567626 0.0257851439485845 0.057027831013193 0.0769590523637739 -0.0098042392043955 0.1723721588616624 )
( 0.1459429967000574 0.0260865384655222 0.0575676567849915 0.0775120651306905 -0.0125009605718914 0.1760420218923629 )
( 0.1489412159339229 0.0263176447521978 0.0574976933720714 0.0780731606536098 -0.0146535544057501 0.1764747405864183 )
( 0.1517888115511787 0.0266491227397535 0.0569719101822468 0.0784277936021541 -0.0162558419307384 0.1746764478511531 )
( 0.1543068147239057 0.0270901926900637 0.0560144443998147 0.0786084749849935 -0.0172934231425394 0.1714541936904225 )
( 0.157376820095456 0.0277161812038054 0.0548287038895985 0.0787246854158792 -0.0181782298889538 0.1672050172920161 )
( 0.1612721585028281 0.0282815433482341 0.0539274218194473 0.0784870077564296 -0.0189790170310789 0.162158362076161 )
( 0.1893816958375381 0.0088583027635191 0.0601210850486333 0.1615086022873287 0.0596649323907075 0.1553289629955118 )
( 0.1799359478168648 0.0098885394497632 0.0599081449424067 0.1500165453260231 0.0570629587218947 0.1297230937767792 )
( 0.1675895281940897 0.012945751665492 0.0567905332985707 0.131700256114628 0.0495384043664887 0.1016792072610604 )
( 0.1562934827356052 0.0157598908614376 0.0518930244592076 0.1171399224956377 0.0391789316146523 0.089368332717102 )
( 0.1477057837394888 0.0171849379080199 0.0472460534743534 0.1082777935177548 0.0305060152682536 0.090904090781555 )
( 0.1415474151039154 0.0188293795341246 0.0437084343126 0.1012310134996925 0.0229657310249602 0.0999857965489575 )
( 0.1371503676006604 0.0206283592079197 0.0406887551007696 0.094983938128334 0.0159349999807985 0.1140744730162051 )
( 0.1334932994763106 0.0221665243954994 0.03860548726309 0.0900477782738313 0.0101165102910154 0.1297565078641956 )
( 0.1313632126335507 0.0239905950864292 0.0376290337457358 0.0863670550991303 0.005399577283373 0.1440225882193438 )
( 0.1314895444153958 0.0258176521495252 0.0369035068882388 0.0833285050261287 0.001185202587229 0.1558303104987055 )
( 0.13332083876162 0.0275233500451461 0.0363841328913776 0.081181736995349 -0.0028768776496577 0.1644739493897364 )
( 0.1358340265245567 0.0289989724642218 0.0359191555338451 0.080222873468879 -0.0064945692017524 0.1688853148755322 )
( 0.1394404714728895 0.0305036603651911 0.035325719997711 0.0801606669382743 -0.0097404347736253 0.1687902776610561 )
( 0.1441751742284773 0.032459380353393 0.0340756981862278 0.0804292680473168 -0.0124843375717438 0.1662381312607993 )
( 0.1485081918433257 0.0342414645200914 0.0319844225976559 0.0805746954799829 -0.014432851211756 0.1617118724274518 )
( 0.1528126676775761 0.0359323746536106 0.0298402286575189 0.0805657253723495 -0.0158810309669345 0.1565357153503942 )
( 0.1570703544033936 0.0377320053152207 0.0279343535053612 0.0805929823312471 -0.0169414252095115 0.1509851863241284 )
( 0.1615462059471648 0.0396564759041132 0.0260179963624896 0.0806994380949605 -0.0177135767782847 0.1451808287877427 )
( 0.1666065500534587 0.0415792751472834 0.0243525622080185 0.0803225726143973 -0.0180964189586177 0.1392386512495715 )
( 0.1755072183200474 0.0069572505218991 0.0591710990791356 0.1610444297324143 0.0577371027314713 0.1391137360430103 )
( 0.16320349229244 0.0083227137926222 0.0546195137137558 0.1475881829136983 0.0529397152881443 0.1130494972342575 )
( 0.1493169956181691 0.0111147460078258 0.0471402488337881 0.129641788550918 0.0435359876087236 0.0914430945653476 )
( 0.1390346203465934 0.0141797509761152 0.0398346414584623 0.1169395591058757 0.0328400662590619 0.0892786283779972 )
( 0.1318336572429217 0.0165689621362249 0.0340945242165356 0.1089325034629893 0.0245898255049666 0.0979971135330822 )
( 0.1266644844521952 0.0190414833681344 0.0298002113021531 0.1025167525716428 0.0179125448105259 0.1119933951732449 )
( 0.1236575896293749 0.0222284314430843 0.0262596713723193 0.0968411730991424 0.0121620128063171 0.1277224932120312 )
( 0.1213869345876025 0.0251887425011028 0.023366352977714 0.0923403715090799 0.0073236118371353 0.1418192390136345 )
( 0.1204733855021835 0.0284482227550841 0.0209982623082875 0.0893648576736673 0.0030201100409353 0.1525246305233263 )
( 0.1227817007922242 0.0322731927718432 0.0185926832476345 0.0870748724035012 -0.0011750235670229 0.1593624590462961 )
( 0.1276485507453963 0.0358941992748459 0.0163780661341751 0.0855678617960336 -0.0052751053964149 0.1620778141784644 )
( 0.1331982514375711 0.039403948775039 0.0141713072200295 0.0849962382549237 -0.0088898925457825 0.1600235579084126 )
( 0.1389194262586732 0.0427030776684651 0.0118784513916306 0.0850743726153445 -0.0121416511150965 0.155047703667562 )
( 0.144744288540728 0.0461513782457439 0.0093353306641351 0.0854958035985957 -0.0146673326193352 0.1490463495097298 )
( 0.1500425923584125 0.0494935417646443 0.0062979487384845 0.0858025941868136 -0.0162678756515863 0.1422450311628851 )
( 0.1547942442207892 0.0523488350965905 0.0035873660329637 0.0859223897039556 -0.0172785945106166 0.1358941658024389 )
( 0.1596380188557179 0.0551565159191093 0.0013339723621214 0.0860870503357394 -0.0179525282355194 0.1298803774802685 )
( 0.1639111286793801 0.0578375920966836 -0.0006957842158114 0.0861095462342346 -0.0182291071106211 0.1240082802410082 )
( 0.1681597226768687 0.0603426132896389 -0.002387513073602 0.0856447763602676 -0.0180900667155099 0.1186073554069016 )
( 0.1575065102873446 0.0066402111951938 0.0534089275602271 0.1565739702108746 0.0536103498803 0.1222865366497121 )
( 0.1444823105763195 0.0080958796028828 0.0456071821341626 0.1428996271014479 0.0471340373446932 0.0991512810000875 )
( 0.1324246189451885 0.0113829198796544 0.0358801186282163 0.1270837712136244 0.0369821071068692 0.0870302386199525 )
( 0.1242009938308398 0.0155013661339309 0.0277128135160294 0.1163440218465107 0.0272246974046455 0.0934580748594375 )
( 0.1189897222612952 0.0191007125427891 0.0219057672418066 0.1095557956165424 0.0197318747177448 0.1067941028220874 )
( 0.1146361546393974 0.0227386673572351 0.0170779694816785 0.1042316539979754 0.0133305113876239 0.1224054237377485 )
( 0.1120440344412243 0.0271019843834086 0.0128915868198882 0.0995449786591496 0.0080752347755889 0.1368025547097761 )
( 0.1119318989721528 0.0317193802827612 0.0086233681597553 0.0962953966103715 0.003310006261378 0.1474500185652963 )
( 0.1134361372374229 0.0369532150425786 0.0041566758613013 0.0945740608462453 -0.001374669453791 0.1538487142720141 )
( 0.1179607138692623 0.042539935004846 0.0002486209057629 0.0933353140668433 -0.0058037248309595 0.1557730543595681 )
( 0.1245841090070692 0.0478157675736361 -0.0032918997574374 0.0926135017641477 -0.0097531996157246 0.1529640155018876 )
( 0.1321732732691077 0.0530622974208629 -0.0067309940339169 0.0925252859881523 -0.0131627006465409 0.1465868131051253 )
( 0.139968430955765 0.0578134738857888 -0.009784058477897 0.0929240663507843 -0.0159105153408153 0.1391007379071283 )
( 0.1467443514744365 0.0620720562672949 -0.012488200869058 0.0934855894098836 -0.017855648966205 0.1315067825676611 )
( 0.1522490252630025 0.066025668633566 -0.015240495804011 0.0939826898095925 -0.0190306900866662 0.124076518805067 )
( 0.1563825611373551 0.0693560881347773 -0.0178225875644111 0.0944231862581064 -0.0196588445373992 0.1178875942705756 )
( 0.1596588230008181 0.0722011629317504 -0.0199784755427936 0.0945001674439266 -0.0199541743972606 0.1125553322341886 )
( 0.1623526923141168 0.0748027693316752 -0.0219334779798843 0.0942720442177675 -0.0200281112493017 0.1078702956493931 )
( 0.1644180460947908 0.0769365353712501 -0.0235891523099395 0.0935095967480038 -0.0198712353848612 0.1041701248020114 )
( 0.1404275272161443 0.0074670406340382 0.0453480596403489 0.1510898381091341 0.0489524033700959 0.1085099110760837 )
( 0.1280582711671207 0.0095907097750818 0.036035595112593 0.1380953380197576 0.0412987131094631 0.0908734446597345 )
( 0.1183832564569896 0.0134878201831734 0.0259454261692458 0.1252639538117778 0.0308336968952712 0.0878111549806688 )
( 0.1117651783223439 0.0181676377409606 0.0174385313324162 0.116847298894759 0.0215332134877309 0.1002725011187206 )
( 0.1074481942359176 0.0230406460317169 0.0110910905070502 0.1113152537827118 0.014322212304157 0.1158349474735225 )
( 0.1052730177525836 0.0282958545224184 0.005227956106353 0.1075107471448732 0.0079727602517191 0.1308762303380353 )
( 0.1040580711410329 0.0342802648008884 -0.0004426479428484 0.1045317226711173 0.0023277324878389 0.1429041377086659 )
( 0.1056958002685429 0.0404683624845538 -0.0062630541731481 0.1028364214400491 -0.0024680482263295 0.149569369824736 )
( 0.1105720132851674 0.0473554124026582 -0.0122608039334263 0.1024430321758413 -0.0071442528563022 0.1511861030227642 )
( 0.1172156116355362 0.054437321820632 -0.0170566743698383 0.1019429149758494 -0.0115472856515562 0.1486157674260069 )
( 0.1251569482760553 0.0609926625879377 -0.0211286810741885 0.1019943431051864 -0.015175555479995 0.1417145481887997 )
( 0.1338428360996166 0.0669258315026269 -0.0245670167005969 0.1023295486367988 -0.0181816740795199 0.1330212844862691 )
( 0.1418701082947893 0.0719865047740917 -0.0272564348445738 0.1027526260338277 -0.0201813011771405 0.1244175545686914 )
( 0.1480934148141462 0.0763974518485557 -0.0297401107133369 0.1034925163254107 -0.0215033246235145 0.1165829181209069 )
( 0.1521005601068746 0.079988401946212 -0.0319252580444778 0.1040130927058773 -0.0223057128360828 0.1102285319857403 )
( 0.1546411038938733 0.0829592781688622 -0.0340453107431556 0.1043996698735259 -0.0228276657389115 0.1051337402301926 )
( 0.1559972739717359 0.085381025393617 -0.0359879922497589 0.1042991016819975 -0.0232030598444119 0.1013605291773704 )
( 0.1566721657402175 0.0873918281063496 -0.0377877765828156 0.103760162871827 -0.0234318879660481 0.0989382792198726 )
( 0.1565634482233119 0.0887700985276075 -0.0392521689248153 0.1024951049211496 -0.0235231449066398 0.0976775410572043 )
( 0.124977313932562 0.0095344906771744 0.037256119547105 0.1452104925159407 0.0440600139437546 0.0989967333285685 )
( 0.1136708891346076 0.012399211803547 0.0276725702526701 0.1340670563184918 0.0357124115274741 0.0874600653563343 )
( 0.1059921879062481 0.0165548509291852 0.0175375487564303 0.1243982347745723 0.0248478434231321 0.091903957520324 )
( 0.1010997023595854 0.0217609214725446 0.0088872243806104 0.1186278079452886 0.0155775395823955 0.108553758817032 )
( 0.0981504195898637 0.0277679674541508 0.0011433977467158 0.1149201528733472 0.0080537738617193 0.1251554565632819 )
( 0.0981205605885005 0.0343265738154976 -0.0059904175915679 0.1128474409805434 0.0015999430452636 0.1380623499117798 )
( 0.1001135813412414 0.0418182019699144 -0.0131307402551044 0.1117150809293715 -0.0041947468084641 0.1462558189414548 )
( 0.1044413319964749 0.0496428476827078 -0.0199635001996839 0.1113764875041584 -0.0091512998567351 0.1495178539125419 )
( 0.1116659036615366 0.0577587231436913 -0.026250423762605 0.1120186554936503 -0.0134054712480006 0.1470018806036909 )
( 0.1199481578737179 0.0657006991768882 -0.0318478498590864 0.1126028186677281 -0.0174725973088904 0.1405169773405807 )
( 0.1286337729196159 0.0727536517068914 -0.0357221107813968 0.1131325456911451 -0.0206132079873296 0.1312773868305754 )
( 0.1365624951913057 0.0784571514632826 -0.0382940142823637 0.1133274657887156 -0.0228511986131329 0.1215408676016253 )
( 0.1425581137552783 0.0831189226298511 -0.0404369669031229 0.1134518276126878 -0.0243746206079523 0.112828526940697 )
( 0.1468846102673024 0.08708545254156 -0.0425131365962766 0.1141775505311779 -0.0254878168624502 0.1061411386014495 )
( 0.1491618188714333 0.0899551749742243 -0.0443049571064105 0.1145298525242094 -0.0261836385747393 0.10177450998062 )
( 0.1498568361378989 0.0922721397751702 -0.0459515391102297 0.1147203717377892 -0.0267704685354301 0.0986193126576184 )
( 0.1495896929506551 0.0942583241631122 -0.0476111367624936 0.1146900130480677 -0.0274157504359772 0.0969734903387912 )
( 0.1487848268462555 0.0957160989401511 -0.0490360685309963 0.1139057249145366 -0.0278851503183882 0.0968903065175255 )
( 0.147455170565041 0.0968036416448429 -0.0501377359938877 0.1123333205893085 -0.028195997762727 0.0981623781544654 )
( 0.1115839098580754 0.0124261956843199 0.0302604452030666 0.139601088229325 0.0388573407921307 0.0936593716554288 )
( 0.1021384299509485 0.0157591020453517 0.0208186255617164 0.1306342397154437 0.0295996594946422 0.0889529724825129 )
( 0.0963707226069836 0.0203482437287874 0.0101642793049885 0.1241878755581415 0.018471005694406 0.0998459161326222 )
( 0.0936052606854637 0.0262694834758783 0.0008042970547097 0.1214968718605159 0.0091015679779306 0.1183213299920213 )
( 0.0930309401086638 0.0332548070569605 -0.0079639697724237 0.1202871220763423 0.0013069078746593 0.1340173426564928 )
( 0.0950197019410092 0.0410289243191996 -0.0166578526425048 0.1203518631972137 -0.0053313628107506 0.1441262413040105 )
( 0.0996601935929951 0.0495841733757807 -0.0251054130145115 0.1211367163484794 -0.0110735102378622 0.1483223455136288 )
( 0.1064582693691669 0.0585458576147072 -0.0326100594811685 0.1221179631688085 -0.0161475175018872 0.1475169065470982 )
( 0.1142134630898189 0.067216835249752 -0.038717056454344 0.1235853747325497 -0.0201468001662596 0.1419524992576037 )
( 0.1227535316512277 0.0749095386831878 -0.0434263903069274 0.1244260232069181 -0.0233469664467138 0.1329063761062329 )
( 0.1309979355325644 0.0814177902569518 -0.0464799737984959 0.1245290927520715 -0.0256672159441585 0.1225951377480406 )
( 0.1372215063595056 0.0866127391170892 -0.0483972676558485 0.1242745080285214 -0.0272127271231722 0.1131176434469226 )
( 0.1411470592929641 0.0907354635341 -0.0501017380209842 0.1242815108974519 -0.0285333145365347 0.1056671612515798 )
( 0.1433009000730659 0.0939868216426274 -0.0515920428755394 0.1247929300576075 -0.0295423008866225 0.1008391284232325 )
( 0.1439079138752207 0.0963610770798538 -0.0529375950814127 0.1252230950294144 -0.0303254828416862 0.0981438218376057 )
( 0.1434115045531317 0.0983922540569101 -0.0542693273720904 0.1256767543100254 -0.0311472843715572 0.0969818186449731 )
( 0.1423518457087316 0.1003155640811938 -0.0555715983022853 0.1259055497391874 -0.0319704470842936 0.0974411151381395 )
( 0.1411326403442982 0.1019577499860937 -0.0566590668343374 0.1252341976637137 -0.0326407729335282 0.0993781870291951 )
( 0.1402167093137721 0.10358426080804 -0.0574689480474625 0.1236279747986703 -0.0331159455723817 0.1024778212912564 )
( 0.1009953773549222 0.0158709314802776 0.0250658382357005 0.1348335923649695 0.0338693176030254 0.0926811909164039 )
( 0.0940800376736479 0.0192944087847665 0.0157234269999361 0.1286940377092781 0.0236830200473018 0.0945256290224462 )
( 0.0898174756532811 0.0241615934060972 0.0037745986016208 0.1258631633911546 0.0116930594252195 0.1103162015978155 )
( 0.0884452419051101 0.0306330169723775 -0.0067951381120257 0.1258369513824481 0.0021328712576666 0.1284384461951252 )
( 0.0896824810047312 0.0386821091397055 -0.0164707023886426 0.1268028363476117 -0.0057901947304233 0.1415784940586872 )
( 0.0940055533133571 0.0475142464654272 -0.0264133550712217 0.1288745809286168 -0.0124833850981718 0.1489004897204251 )
( 0.1009757926350777 0.0565231251497679 -0.0355488453637259 0.1315244817414555 -0.0182067895282674 0.1498763738587154 )
( 0.1090260790980958 0.0655373205652291 -0.0428625347558516 0.1337934680332743 -0.0228686107045493 0.1452557632320133 )
( 0.1168301400708486 0.0741509440722727 -0.0482475151701494 0.1352855794335941 -0.0260903546193476 0.1370045201008091 )
( 0.1247055333486484 0.0814844341342443 -0.0518034122194564 0.1357738797959912 -0.028409130577577 0.1269495452051369 )
( 0.1312891327861975 0.0873830670726321 -0.0541717490731568 0.135721881066945 -0.0301287786117162 0.1163452360977705 )
( 0.1357401214761273 0.0920645463361754 -0.0557050378396836 0.1353086188253408 -0.0314177049213437 0.1075562962824946 )
( 0.1380952525450175 0.0955883882903959 -0.0569186542075356 0.1352531691748176 -0.0325440887969988 0.1019083424495033 )
( 0.1387000475471644 0.0983841904125633 -0.057895112219371 0.1356695493349231 -0.0334621598815155 0.0989422860023457 )
( 0.1381364562219329 0.1007941434334129 -0.0588799964040394 0.1366098328770666 -0.0345099426280359 0.0980263696446542 )
( 0.1371610662295651 0.1031302524952576 -0.0599640553398058 0.1376987370534339 -0.0355589711111504 0.0986638647070115 )
( 0.1362815807710174 0.1055337647611925 -0.0609911515519901 0.1383221116555976 -0.0365057170186134 0.1007700006097858 )
( 0.135859407040778 0.1080966047689884 -0.0618350469426668 0.1381114458466987 -0.0372829691369225 0.1040800130186847 )
( 0.1365687238584642 0.1111628742453671 -0.0625284529209827 0.1370113298932977 -0.037861866406855 0.1083053895666712 )
( 0.0932733610855076 0.0195931491324966 0.0204096533635458 0.1309374764113096 0.0289808756250184 0.0958193761433797 )
( 0.0884934584426782 0.0226076277936864 0.0103816404751848 0.1282411182099549 0.0175584887201118 0.1031693748020622 )
( 0.0858508366067163 0.0278098105273682 -0.002606821773509 0.1296437615069568 0.0044920529506491 0.1217144072461692 )
( 0.085916462427066 0.034951154719464 -0.0138897701526475 0.1319501970571121 -0.0050548909348333 0.1383893904682235 )
( 0.0892325189373116 0.043641465943222 -0.0245937233435428 0.1351615085413709 -0.0131213215977821 0.1485376594478637 )
( 0.0954784587980045 0.0529192911436007 -0.034807659330402 0.1383547213421319 -0.019671486320713 0.152692140575982 )
( 0.1034696412007553 0.0619722078987039 -0.0434860804925514 0.1417108094152508 -0.0246842961425542 0.1501764678172293 )
( 0.1113224134890949 0.0709599720287587 -0.0503499351598657 0.1447624117920124 -0.0284662279543333 0.1428916947099511 )
( 0.1188160344677936 0.0790554789379348 -0.0549304810485838 0.145891688658704 -0.0308449660317642 0.1328873454446583 )
( 0.1256316537314221 0.0858628804561843 -0.0580696207522562 0.1464516170896408 -0.0327748274159466 0.1221756597459156 )
( 0.1303306407880664 0.0913436510323658 -0.0600202136542017 0.1467016798305183 -0.0341401178584874 0.1122429317745867 )
( 0.1329725325261711 0.0955230093736986 -0.0610734619390982 0.1465023559100494 -0.0353153592902288 0.1048378470849982 )
( 0.1338810212762773 0.0987926649967233 -0.0616616762484791 0.1466412253076865 -0.036417501745235 0.1005647364932009 )
( 0.1337039896317832 0.101739639316017 -0.0622127784192621 0.1472962378080578 -0.0373812445769605 0.09926752859408 )
( 0.1328161400697103 0.1045788075457087 -0.0631044643408985 0.1489130004871963 -0.0385940570231115 0.1002642215086266 )
( 0.1320135132127167 0.107599526160212 -0.0640193823171219 0.1508907891929346 -0.0397880819205789 0.102527275835524 )
( 0.1319999173761169 0.1110592560630751 -0.0648037463109947 0.1522714193012275 -0.040819365365365 0.1055927015102499 )
( 0.1331981078059652 0.1152743375908206 -0.0653857670872686 0.152836274247578 -0.0416795636838976 0.1093878285957786 )
( 0.1362226746492131 0.1204494242363482 -0.0660371987523589 0.1525032754106368 -0.042432515210674 0.114319879816442 )
( 0.0876106537451574 0.0228904691554029 0.0162655527249514 0.1285672683715488 0.0238570606803155 0.1037370399605769 )
( 0.0843050010121963 0.0257133036754554 0.0052655235266191 0.1289750987250431 0.011381835328675 0.1149022494195027 )
( 0.0837586730011405 0.0312243741698329 -0.00854085587984 0.1338672304835576 -0.0023819770876887 0.1333901576110306 )
( 0.0863069033800585 0.0389351877081531 -0.0203632645114409 0.1388876695752811 -0.0119960459144569 0.1476869203388074 )
( 0.0916215962760661 0.0479599460498765 -0.0315534778466335 0.1440239285127657 -0.0199029534279233 0.1545375010362198 )
( 0.0985817348931559 0.0572430110123577 -0.0414612327018608 0.14797128923542 -0.0260336566098339 0.155156212868663 )
( 0.1061556081157616 0.0662798208051012 -0.0495477335444248 0.1514411921349076 -0.0301706001186322 0.1500876510127725 )
( 0.1133606541056578 0.074917651663885 -0.0560631405692552 0.1549673214942782 -0.0330687663352165 0.1409586164460971 )
( 0.1200289063831411 0.0821636713395488 -0.0603646791531226 0.1567289192937352 -0.0351885392986094 0.1301632774502223 )
( 0.1250720338121045 0.0881084300979744 -0.0627087904686887 0.15681109326741 -0.03667189110911 0.1190612653483918 )
( 0.1281192347949982 0.0933166613757745 -0.0641236054558904 0.1568780597782196 -0.037758404219104 0.1099090869604711 )
( 0.1294295248469612 0.0974624753068387 -0.0647447654893713 0.1572762553392763 -0.0388783044408982 0.1040785780333791 )
( 0.1293527402263547 0.1010207033990231 -0.0649491383012316 0.1580823780104122 -0.0399399766886772 0.1013880421811058 )
( 0.1286926124168943 0.1046290015497497 -0.0653139809392792 0.1599212677828762 -0.0411133844991753 0.1016754014231399 )
( 0.1281221159981827 0.1082694097448233 -0.0659622810288886 0.1626379683241729 -0.0424974998329176 0.1037479869670292 )
( 0.1281426719607516 0.1124255813728865 -0.0666393500146372 0.1655474297684214 -0.0438339709465568 0.1067167207573382 )
( 0.1295734629561085 0.1177623824157941 -0.067350451166268 0.168370570263426 -0.0451518565108139 0.1105251750356719 )