/*--------------------------------*- C++ -*----------------------------------*\
| =========                 |                                                 |
| \\      /  F ield         | OpenFOAM: The Open Source CFD Toolbox           |
|  \\    /   O peration     | Version:  2112                                  |
|   \\  /    A nd           | Website:  www.openfoam.com                      |
|    \\/     M anipulation  |                                                 |
\*---------------------------------------------------------------------------*/
FoamFile
{
    version     2.0;
    format      ascii;
    arch        "LSB;label=32;scalar=64";
    class       volVectorField;
    location    "0.0005";
    object      U_LES;
}
// * * * * * * * * * * * * * * * * * * * * * * * * * * * * * * * * * * * * * // 
 
dimensions      [0 1 -1 0 0 0 0];
 
internalField   nonuniform List<vector> 
13597
(
( 17.677248219624104 1.922856998915198 0.1096374883288284 )
( 17.683459767967545 1.9642582031540956 0.1151978541964473 )
( 17.707301993986174 2.0466002825469154 0.1242561507229755 )
( 17.744391642399666 2.151863260962937 0.1340771957654582 )
( 17.775505697515722 2.242566193756925 0.1424277320207591 )
( 17.7957480018899 2.3181723905296567 0.1501391165566117 )
( 17.819939376531593 2.3923125032403085 0.1574303995607794 )
( 17.846809345584433 2.4731229867988573 0.1652658653956185 )
( 17.87572856252589 2.554891824473845 0.1725179673824902 )
( 17.907150120004236 2.6367445721249525 0.1794152688559645 )
( 17.938746547532336 2.7289980992059526 0.1872324766114631 )
( 17.97545600719195 2.8216503003300075 0.1938320963046753 )
( 18.01526094218355 2.913884276990874 0.1993064537252992 )
( 18.0542498288384 3.0122697645292646 0.2055056642751487 )
( 18.09311743255543 3.1135405544785923 0.2129705758038597 )
( 18.13436349991384 3.214634428301961 0.2207296020278779 )
( 18.17836175073043 3.3127346171399337 0.2263980967602686 )
( 18.22219406469309 3.4112515514576045 0.2305823291029229 )
( 18.266875234456823 3.5135558278341024 0.234113827016907 )
( 17.523935816664586 1.980706125382227 0.1290470659133005 )
( 17.508742022662837 2.0352948215584594 0.1381472495848074 )
( 17.508471439993208 2.1435664942637525 0.1546407963013756 )
( 17.51352888883073 2.2664580267289574 0.1733595159909418 )
( 17.511778227827918 2.3635740039519457 0.1886459457243026 )
( 17.506772286687447 2.45439978319542 0.2029932392207507 )
( 17.50750781386769 2.545759727015268 0.216668287978197 )
( 17.50910867787157 2.642880511719259 0.2311249518240783 )
( 17.514190873830174 2.742153181368153 0.2446926327718076 )
( 17.52054820253241 2.842280367421765 0.2569522443060472 )
( 17.526178227637704 2.9544360201323503 0.2700790919342256 )
( 17.53150760951735 3.073563820664166 0.2822566057876771 )
( 17.53627341300458 3.1941739397380147 0.2928967452515416 )
( 17.5436535765479 3.319049531470556 0.3022232049025863 )
( 17.551385149053168 3.4418530015969444 0.3102628291999678 )
( 17.56192997734732 3.558199009513457 0.316681530233809 )
( 17.573459227415487 3.6657307466196327 0.3208585805521734 )
( 17.58274449286171 3.775985886642435 0.3232587673754065 )
( 17.59694116603706 3.885499375260331 0.3237608970667814 )
( 17.35955141953241 2.0254093492719867 0.1448733489722486 )
( 17.317135325294885 2.0900957442439334 0.1586227345516553 )
( 17.2883666101965 2.2152271196897173 0.1822665562890502 )
( 17.260040337758284 2.350274231247159 0.2076554732343946 )
( 17.22604091495676 2.4546580164995517 0.2268975670868325 )
( 17.199206935078887 2.5580560327015847 0.2445849579522848 )
( 17.17837942222294 2.665119895016674 0.260315305334849 )
( 17.15102177915696 2.7754698661357757 0.2748128858238417 )
( 17.127787433652095 2.89120681399271 0.2881810303776812 )
( 17.108991833887806 3.016404287738665 0.2997179347567293 )
( 17.0875842753188 3.14863551878569 0.3097804454936123 )
( 17.06518961258129 3.290453384627419 0.3176996398337868 )
( 17.043670658619703 3.436557184340687 0.3228507691535747 )
( 17.025291711232708 3.576937064930765 0.3250340475122631 )
( 17.00966215144287 3.706059995425598 0.3247480974976579 )
( 16.99703284776808 3.820612295733213 0.3226758682492812 )
( 16.982403644018756 3.9238582911233206 0.3187013347681566 )
( 16.96636243843654 4.027997969701218 0.3126967741636863 )
( 16.959382721489806 4.135437727839715 0.3055962283134326 )
( 17.183949976401934 2.056851209236259 0.1597867043344884 )
( 17.116336806710617 2.12899987437612 0.1780990576379252 )
( 17.06321376591589 2.2627977002831323 0.2057063050597348 )
( 17.00678298306606 2.4059316241531734 0.2329915729924066 )
( 16.944406070928977 2.5194243565756462 0.2523482885850479 )
( 16.89174012000505 2.6316912216626718 0.2677602198704761 )
( 16.840608435250868 2.752185234967403 0.2803148665950747 )
( 16.7861238506008 2.8769712889099184 0.2895987827083317 )
( 16.739912946930914 3.007284243977785 0.2965251441138783 )
( 16.698464678158107 3.146886289000642 0.3006726253829357 )
( 16.65300140632305 3.2952385586621986 0.3011682011811787 )
( 16.61217263101542 3.450014757208966 0.2988368539482409 )
( 16.575663543673244 3.604729914633691 0.2937312576667215 )
( 16.53801748491037 3.752781926651346 0.2860773415980363 )
( 16.500930798439143 3.880421619357004 0.2768258047717944 )
( 16.466386199420526 3.989752284833447 0.2672589228846256 )
( 16.43196338636261 4.089284502351916 0.2572114506275386 )
( 16.39511625320176 4.190209378500804 0.245829025997669 )
( 16.362602034435884 4.301524970954743 0.233518739890432 )
( 17.009968108381184 2.0744725742851133 0.1742399266472636 )
( 16.92702700664983 2.1535054957142026 0.1950373922585531 )
( 16.849651089758027 2.2966574618676767 0.2237121555388738 )
( 16.765480234023997 2.444117215437599 0.2469974548578843 )
( 16.681537918194422 2.562955448054513 0.2606727854055444 )
( 16.605918011933657 2.682538828580641 0.2698928912979492 )
( 16.529121025422523 2.812642492734295 0.2749823194405125 )
( 16.453792250762476 2.946716910785178 0.2761112269562965 )
( 16.386948271170407 3.083744642452019 0.2737609296638367 )
( 16.322198151418206 3.2306079276323425 0.2682543883099708 )
( 16.255339498272832 3.391499711510398 0.259848922276722 )
( 16.191962951709954 3.5565022893068976 0.2495875292003994 )
( 16.131022810431134 3.7166140144250064 0.2371759725519541 )
( 16.06866047256931 3.8663593440259514 0.2233830208139271 )
( 16.005040533678997 3.9893858326614056 0.2092175515264311 )
( 15.943051779411798 4.099514327552863 0.1956272598789708 )
( 15.88415088896998 4.204906782496923 0.1826393883541525 )
( 15.825495939134967 4.310718822747091 0.1692836723727665 )
( 15.767387651940814 4.428916939766296 0.1553756883942514 )
( 16.846916456676933 2.076679122223537 0.1866424273881192 )
( 16.749793456897656 2.1630659964967363 0.2072482434104215 )
( 16.646682583862532 2.317602472977242 0.2329177677074785 )
( 16.541427992537123 2.4676311159403244 0.2490048605954181 )
( 16.442009168722013 2.58989309712999 0.2545565755443564 )
( 16.349121606751 2.7158014775376267 0.2559781037945987 )
( 16.257407735240214 2.848218214077557 0.2525228716845971 )
( 16.162950633711286 2.9851913362743336 0.2451784448686286 )
( 16.067820494574033 3.128439877789913 0.2347102613098461 )
( 15.975583823731377 3.2877983522264107 0.2217758893682591 )
( 15.88699616687746 3.4551676896580954 0.207969788712155 )
( 15.79630292460299 3.622706342575019 0.1927711717080308 )
( 15.70818199856161 3.786535528117141 0.1764085271043727 )
( 15.622194209468354 3.9350369880559546 0.160465292350693 )
( 15.533953156595825 4.058827115694429 0.1448909149949362 )
( 15.451795288809413 4.167888576761531 0.1308722229466908 )
( 15.371398335121532 4.273525339284033 0.1176862662561096 )
( 15.290118397989772 4.380807260383356 0.104661628998517 )
( 15.209626075660418 4.502073114054976 0.0919267487914533 )
( 16.6892998059579 2.068638493650492 0.196182795131564 )
( 16.578630080273626 2.163732484835703 0.2140811309099969 )
( 16.458101055624386 2.3261011425322744 0.2323775535919892 )
( 16.338045885598152 2.475287643269896 0.2394158613350979 )
( 16.22552300006761 2.598631889115047 0.2372285775565031 )
( 16.113872433989528 2.726479440439377 0.2302887609534397 )
( 16.00328916465773 2.861652336611242 0.2198679702631136 )
( 15.889781669758742 3.0029710079650425 0.2062182593030095 )
( 15.769680582124897 3.1496316233644484 0.1903207223769885 )
( 15.65637474664506 3.312984497306031 0.1742043560244977 )
( 15.542872214691986 3.4848115555081574 0.1572638881329741 )
( 15.423832611189829 3.657004684601662 0.1394583523919638 )
( 15.311359925172184 3.819229641765385 0.1227900756666721 )
( 15.202110542925777 3.9639150325027295 0.1072925452982099 )
( 15.091531031628266 4.091175878142617 0.0922354378490284 )
( 14.986752296520551 4.198336845338183 0.0790577604362888 )
( 14.885448806909162 4.301448843814089 0.0671832159918586 )
( 14.782190688624404 4.412804523707531 0.0553230012025597 )
( 14.679836851298328 4.537148346670219 0.0437233932600587 )
( 16.54615314115823 2.053351629647009 0.2018087963022968 )
( 16.42364048502876 2.1523511533866184 0.214336429092605 )
( 16.288974198105414 2.318097390506386 0.2235286319197408 )
( 16.15426893131114 2.4668741718373544 0.2217542177591488 )
( 16.02619137459347 2.591387108502882 0.212440395805577 )
( 15.89696855250377 2.7222733005436948 0.1994183578617927 )
( 15.764796776710767 2.861573971952041 0.1838900793783977 )
( 15.631836885417451 3.002429747293118 0.1664560891286138 )
( 15.48965855783977 3.1495509398585204 0.1477947165213986 )
( 15.353103977391102 3.317185003030942 0.1304133588426938 )
( 15.212342520348988 3.4926840701076327 0.1124252422910629 )
( 15.069653265881003 3.6682328332361736 0.0947295187404688 )
( 14.933609497552284 3.830248785563031 0.0791253491588859 )
( 14.797509687790685 3.968877848418881 0.0641185092827556 )
( 14.669770602597838 4.089349712421659 0.0508364491257794 )
( 14.5443292806143 4.196488221783961 0.0387338210821572 )
( 14.42137280756674 4.303223941724728 0.0275131937664375 )
( 14.298430526943983 4.420381844846119 0.0168634092481281 )
( 14.176439539078704 4.549431703216805 0.0066043524711324 )
( 16.4168568035891 2.026235397874209 0.2019104335055455 )
( 16.282221762546296 2.124880861036541 0.2071747446818058 )
( 16.132508804019857 2.293235647827752 0.2077920487020726 )
( 15.985185013975782 2.4423708888750286 0.199719289163153 )
( 15.83901394527448 2.5712790974434765 0.185252866515628 )
( 15.69450185939047 2.702034409818516 0.1680094019453791 )
( 15.545502161790203 2.8387893498903094 0.1491382753372438 )
( 15.39371527648934 2.9843896056776416 0.1308813568922867 )
( 15.233580956982046 3.1369357023454043 0.1120928660966602 )
( 15.064607094396957 3.304182244289648 0.0926966285290151 )
( 14.897383411302304 3.481418855565771 0.0750647994506005 )
( 14.735709538106846 3.6554333614327694 0.0591637248614585 )
( 14.572352478598129 3.816433441672393 0.0439728621732336 )
( 14.41381495346718 3.9540447067663433 0.0296556671991526 )
( 14.270068533861904 4.070005729862217 0.0178248584103383 )
( 14.124840315162398 4.179319737641809 0.0066026347345565 )
( 13.980548880410876 4.288566695704688 -0.0037535392649371 )
( 13.837196687047443 4.408106323835644 -0.0127367763254723 )
( 13.69338048669513 4.542291196573408 -0.0207779925147218 )
( 16.29549518295785 1.9952511078651605 0.1980946677083657 )
( 16.150443027349386 2.0997914456565585 0.1964443558376209 )
( 15.987784650304723 2.267606403733601 0.1896261235833817 )
( 15.827406942696236 2.4110699935319007 0.1761651725836082 )
( 15.66726129873402 2.542866546817192 0.158403717393505 )
( 15.507027500074305 2.669752696369622 0.138594321505728 )
( 15.337055197948205 2.8006402400766013 0.1178468713804177 )
( 15.15934082844672 2.9476158176031504 0.0979642500356271 )
( 14.980652921763598 3.1011324900382293 0.0794587839755606 )
( 14.79059006389948 3.2686193497205216 0.0612658076616131 )
( 14.601409850344112 3.4510140061150856 0.0445226936257614 )
( 14.418856259685892 3.6276548647582074 0.0296467878228582 )
( 14.235145139326375 3.784326243617805 0.0153925235880712 )
( 14.060491873975254 3.921488302974657 0.0026740123773319 )
( 13.894849664883132 4.038042594254025 -0.0081173946113804 )
( 13.727659067533846 4.146449479745293 -0.0179824882938931 )
( 13.559650655511136 4.256199604529899 -0.0265644344985272 )
( 13.394929030220217 4.377450650245886 -0.034118962167863 )
( 13.232397618828957 4.518167629372745 -0.0412413483324596 )
( 16.189131088218055 1.962628711950015 0.1913345501035504 )
( 16.03648587198488 2.072810719084812 0.1837763528306037 )
( 15.854546929282424 2.238043012596145 0.170505099901702 )
( 15.68237892774684 2.3733012064016865 0.1530477431152631 )
( 15.509252174512724 2.501143049946211 0.1330251493454664 )
( 15.328452705162864 2.6261052715814066 0.1117323428330877 )
( 15.138274398447392 2.752312088927103 0.089974588263532 )
( 14.94238000627337 2.8934182027762 0.0693028254889696 )
( 14.742410269147262 3.050773235128123 0.0515881120018508 )
( 14.536241524553468 3.2211244617741865 0.0355822757859917 )
( 14.32675101759661 3.403436242879609 0.0197519527084046 )
( 14.11749920115929 3.585709121775432 0.0053585900047752 )
( 13.91968578239636 3.7400163010182905 -0.0071029958345654 )
( 13.729542026376055 3.8762511646777194 -0.0180582310729631 )
( 13.538372867611834 3.994966465760197 -0.0278408055852572 )
( 13.346649961904156 4.102227428670837 -0.0365900836481257 )
( 13.157507057141006 4.213854901158187 -0.0444669085922536 )
( 12.976713846740845 4.33967647804395 -0.0517597923152427 )
( 12.796666242793185 4.48888075639091 -0.0584940758927507 )
( 16.091402181962515 1.923998945434186 0.18114695607328 )
( 15.926614772340676 2.03759217580638 0.1684067127486853 )
( 15.727760745230617 2.202365874097634 0.15049510335057 )
( 15.544586002528948 2.3291512436824 0.1307205647699771 )
( 15.35600867150901 2.448698048252281 0.1090006743844885 )
( 15.15627748061918 2.5719391856437106 0.0869727501680252 )
( 14.953993971135688 2.702005109170996 0.0658966630194124 )
( 14.741551155954024 2.8436679495648782 0.0464190948865905 )
( 14.521628040384046 3.0015869269043822 0.029663338806647 )
( 14.296496503511278 3.1706255859233625 0.0137830431616794 )
( 14.067534792415124 3.3495324905875066 -0.000722899285042 )
( 13.837059958704035 3.527438801601262 -0.0136407813594743 )
( 13.61743634573325 3.6851216687007473 -0.0251238114365512 )
( 13.405441459176092 3.8273724603351686 -0.0351872070136163 )
( 13.191144054669811 3.94624541198642 -0.0443325243625345 )
( 12.981951704385004 4.050955450310309 -0.0525501538308221 )
( 12.780016509607709 4.164820217922411 -0.0600093670263255 )
( 12.584071580824602 4.3013269001435575 -0.0665785542450959 )
( 12.386990152789483 4.461778565063182 -0.0714976985711173 )
( 15.997786338973388 1.876138813541982 0.169167208317069 )
( 15.821671695903593 1.9915354096321896 0.1523771204120694 )
( 15.613255890158912 2.156215543373241 0.1314236918039901 )
( 15.415285802367796 2.2817259854828835 0.1102235001583199 )
( 15.212974677636442 2.401088094662472 0.0879052014162683 )
( 14.999233155912044 2.5228189230534324 0.0660624054865651 )
( 14.781803476413057 2.651639786320556 0.0462143297924229 )
( 14.549777803264394 2.7899888494938883 0.0275907261933878 )
( 14.310130388195676 2.94290437369812 0.0106734425845877 )
( 14.069365533603234 3.113648987283615 -0.0044392819013713 )
( 13.819998561758732 3.2974753815397486 -0.0176949303960024 )
( 13.571551616425465 3.4719729686037346 -0.0296572529823627 )
( 13.32762202320166 3.629616722013045 -0.0400812353115893 )
( 13.088295754968716 3.7720422637901554 -0.0496454463735238 )
( 12.860368605243629 3.885769448103471 -0.0585810056943404 )
( 12.643408715121517 3.99270154340334 -0.0659602063831045 )
( 12.42776654296683 4.11464124948082 -0.0720738731727815 )
( 12.212096397350653 4.259947085365131 -0.0766684329837028 )
( 11.989896468936958 4.434456913547323 -0.07876726082911 )
( 15.911796742026556 1.820507497895756 0.1558786429672315 )
( 15.729593699963592 1.9386020754312252 0.1363571574236776 )
( 15.507443796886475 2.103045445097777 0.1131661836994503 )
( 15.295265770157991 2.2278267803016467 0.0915291064315928 )
( 15.078313556851027 2.3469256049295555 0.0694338364580947 )
( 14.854710541907172 2.46430120225661 0.0480329762977607 )
( 14.621921563214036 2.589516746030119 0.029021093953752 )
( 14.378354000457158 2.7253530448234056 0.011777125484407 )
( 14.120072125401274 2.87515969035216 -0.0047148421130976 )
( 13.857365530996782 3.047153544442197 -0.0192048644915266 )
( 13.587380829704305 3.2336876501627656 -0.0318469577510062 )
( 13.315614005315158 3.4134077819020296 -0.043299734412197 )
( 13.051805768475164 3.573788254616756 -0.0526501000896838 )
( 12.798088717563225 3.708269279810244 -0.0615300255842462 )
( 12.557834178998355 3.819498225186876 -0.0698272655169314 )
( 12.323860673648042 3.935792413699629 -0.0760682435114337 )
( 12.090101979744457 4.07207574856679 -0.0806391068542216 )
( 11.848230436286432 4.221412262121914 -0.0829548127060728 )
( 11.591980254319758 4.402217798987376 -0.0829618783041699 )
( 15.83383252063307 1.7653831914793467 0.1426042798170719 )
( 15.640194004038294 1.887054472704357 0.120304847462996 )
( 15.39636887054435 2.052902245883929 0.0951514275800387 )
( 15.173250065307112 2.169298961611976 0.0733712952669921 )
( 14.94796332788306 2.282303995318678 0.0521986520123343 )
( 14.716249821046766 2.39750065983978 0.0322859967942638 )
( 14.469016022420512 2.5196204694435145 0.0140656881028973 )
( 14.20901913514184 2.655777576120736 -0.0024317412647342 )
( 13.938030386412194 2.803930068450172 -0.0180345747735401 )
( 13.656322566490598 2.9724688092850142 -0.0321558822954952 )
( 13.362642232994084 3.1608775400660947 -0.0444669976834314 )
( 13.066705426121793 3.342057302336628 -0.0547634871530612 )
( 12.783256770838369 3.506042477559071 -0.0634901518195604 )
( 12.521370257233386 3.638799395293891 -0.0717582128772878 )
( 12.270432584943997 3.752475714885794 -0.0784896191788938 )
( 12.017970447295696 3.8761472798502847 -0.0834218073108902 )
( 11.756854573618025 4.019845581587719 -0.0865647678308084 )
( 11.483728684897908 4.182091700913122 -0.0871394072256128 )
( 11.213848579729165 4.385940478850143 -0.0870365398100944 )
( 15.760990118981626 1.711703633596758 0.1300578746383005 )
( 15.555490453587144 1.8332933018545443 0.1065653776669443 )
( 15.296400512081282 1.9967831360643769 0.0806167020699321 )
( 15.061717383096996 2.105624616632656 0.0576755334128125 )
( 14.82792965927758 2.210065441958424 0.0367330285447435 )
( 14.585885395667404 2.328558009819267 0.0187423846379271 )
( 14.326416044742745 2.445715301223716 0.0011935867674434 )
( 14.047653055723744 2.575292301258013 -0.0153835667101964 )
( 13.7603100930479 2.728125018417788 -0.030212589223267 )
( 13.4613598477748 2.893641019314816 -0.0433231092061834 )
( 13.140840774246763 3.0863042191330283 -0.0550506802790702 )
( 12.820413685384196 3.2730888048626903 -0.0648140203164162 )
( 12.528971002030625 3.4313209054675635 -0.0728294743587824 )
( 12.262473367296138 3.5633334679295428 -0.0795011380108641 )
( 11.99758331253506 3.684295748262464 -0.0847511159643964 )
( 11.72278471404774 3.81431873251979 -0.0887018966240959 )
( 11.43103665675282 3.9635993020911 -0.0898363943737655 )
( 11.133852812342315 4.147450610674781 -0.0909405338745666 )
( 10.88046630543286 4.400493746111418 -0.0930234217289339 )
( 15.692814801087223 1.6572793961589454 0.1176670796130705 )
( 15.47285304756523 1.7753537435311153 0.0938250525331817 )
( 15.20361294916485 1.937472308236596 0.067766896615553 )
( 14.964386129913928 2.0425895386891706 0.0448850851971174 )
( 14.7200072888096 2.1432698111598856 0.0245473725687337 )
( 14.461779874836356 2.2583468598936274 0.0066534638172686 )
( 14.188440927577563 2.3683760773776754 -0.0108539269336218 )
( 13.902828184998269 2.4960623593406552 -0.0265546671404846 )
( 13.597847859383023 2.651002475432327 -0.0404042684352859 )
( 13.274664635809708 2.811304026372621 -0.0531130300754982 )
( 12.942253643845268 2.999709297875003 -0.0635447803395082 )
( 12.606048593667174 3.199764047079101 -0.0723013859564716 )
( 12.303180408895663 3.358562993624555 -0.0793476039996413 )
( 12.021885718453472 3.4865157191330143 -0.0845396974996415 )
( 11.732963105430343 3.613897170349561 -0.0895940495572201 )
( 11.42582319738576 3.747588123783903 -0.0929068134978316 )
( 11.111659113254497 3.9118700000031454 -0.0941127297685262 )
( 10.81975800301671 4.1309302881826175 -0.0972460217538557 )
( 10.59863741681218 4.439384225809437 -0.0987337226833407 )
( 15.624780386641149 1.6024279470236489 0.1053101883542774 )
( 15.39426821398908 1.7166839943365615 0.0810906575862598 )
( 15.115680457348796 1.8734930365786304 0.0550343814893261 )
( 14.874001755075554 1.974362950709173 0.0331778358327079 )
( 14.621410150357066 2.0768684834046653 0.0139257463999391 )
( 14.34856438145631 2.1877097357850617 -0.004038790712377 )
( 14.064797981921007 2.287090055318178 -0.0213255440821828 )
( 13.76692551126505 2.4157531327201625 -0.0357577409521552 )
( 13.44308254817468 2.573048568086239 -0.0488070492671679 )
( 13.10193653042694 2.736077814034113 -0.0607415781273035 )
( 12.750659826357955 2.917004104818877 -0.0703540425407989 )
( 12.400868936489626 3.1063435015306324 -0.0782643043860074 )
( 12.085706922467256 3.270388044184629 -0.084404412367646 )
( 11.782047702602602 3.407094833957269 -0.0890653716996927 )
( 11.466745206373847 3.532149508065753 -0.093411731163718 )
( 11.137836078814296 3.6726560932341576 -0.0960763917620955 )
( 10.813149372637668 3.860948184951758 -0.0991460744605256 )
( 10.54706223646689 4.131602588071755 -0.1029200747288103 )
( 10.325152107868709 4.486451972804182 -0.1018066477044401 )
( 15.561590001371425 1.5447656630109183 0.0946715047859775 )
( 15.323433986082454 1.6542784905482677 0.0703512878793472 )
( 15.032720552571648 1.8025100513074863 0.043504171578842 )
( 14.788079227475432 1.903540801588867 0.0223081526084621 )
( 14.526900097720452 2.002961492468456 0.003965829244712 )
( 14.239590061920955 2.111510114147789 -0.0136493473394568 )
( 13.95472522696501 2.210886387655457 -0.0299813472172132 )
( 13.642099028029952 2.330125972524697 -0.0438458006554068 )
( 13.296176344653576 2.486190489247083 -0.0567287943090647 )
( 12.935829775530982 2.6559159894240065 -0.0677967892387869 )
( 12.56064247982088 2.8389270747259108 -0.0767244258605954 )
( 12.205032535861095 3.017801252355089 -0.084252507501008 )
( 11.871803508853915 3.1760892999733383 -0.090202517392216 )
( 11.541824787542074 3.319034241519719 -0.0938590260425403 )
( 11.211255445175738 3.45172404095835 -0.0962437302577639 )
( 10.872204353787897 3.611956400994938 -0.0983740822605305 )
( 10.54887476991607 3.8343529416354665 -0.1031395268845014 )
( 10.294796572965607 4.14810861481184 -0.1068474021214277 )
( 9.973245450172728 4.488937746609499 -0.1046069650082507 )
( 15.506873975518142 1.485748807379487 0.0850719176238425 )
( 15.256074006090644 1.5869260073131255 0.0603718479598516 )
( 14.955499396702834 1.7296391712371952 0.0332792537369433 )
( 14.704970062245993 1.829945131159872 0.0129668386398245 )
( 14.436252643339888 1.9276866618680295 -0.0047747840568544 )
( 14.138701350059195 2.037482426286338 -0.0220271302504101 )
( 13.84198516529068 2.135809391691012 -0.0373943371745581 )
( 13.52209372160165 2.246362012548825 -0.0507779618925983 )
( 13.164241683609069 2.394567376304369 -0.063249970503028 )
( 12.782286262200277 2.5599867516483346 -0.0742337832054831 )
( 12.38938997876938 2.7504460641085084 -0.0829680086558803 )
( 12.022783535399771 2.935215471213553 -0.0898161615314086 )
( 11.666747766155048 3.087615721925684 -0.0956953589589043 )
( 11.316726762419968 3.22597519869526 -0.0987792212027181 )
( 10.965578876638338 3.3807844174916597 -0.0993357862132502 )
( 10.61781796693286 3.56441971368229 -0.1016499565211734 )
( 10.309102642417356 3.821120255933197 -0.1076012778591523 )
( 10.006381977984873 4.160029353107522 -0.1082325538254191 )
( 9.49886960246232 4.417819593173989 -0.1049243023314075 )
( 15.452110787848431 1.4213722955979256 0.0754320730758323 )
( 15.196315084012664 1.5219434357078572 0.0512889206387859 )
( 14.891544760181226 1.6580703405339323 0.025013255996992 )
( 14.629471562843898 1.748994529421466 0.0047990433506415 )
( 14.35300445064815 1.847790717575508 -0.0129533368798428 )
( 14.04963286695378 1.960903832322002 -0.0296143741191965 )
( 13.738740197979544 2.0541899664925425 -0.0441143831335853 )
( 13.412127410843604 2.158449839243413 -0.0567915152081303 )
( 13.035736058509332 2.3047798232385763 -0.0687515855464277 )
( 12.636816766948462 2.468861285213693 -0.0794710589094833 )
( 12.22961893611053 2.6573900348419137 -0.0884783493962103 )
( 11.837621482100662 2.8450413586430554 -0.0949944164882383 )
( 11.470867502241646 3.004117336414612 -0.0994701534788385 )
( 11.114535688513785 3.142601405237752 -0.1016849902295233 )
( 10.742298946300094 3.311651110992977 -0.1034450899869181 )
( 10.379933412281565 3.523030497244052 -0.1077266406944451 )
( 10.073057443432871 3.809123857147071 -0.1107973534591224 )
( 9.677672160199124 4.144859356634313 -0.1085219196065998 )
( 8.88052292262351 4.248966940837529 -0.1031984426269539 )
( 15.398529378162433 1.355007011997719 0.0665109990945452 )
( 15.14053911175321 1.45701404363768 0.0433234710639539 )
( 14.831552057751162 1.5904362344097476 0.0176919706792481 )
( 14.563654962858028 1.6766063710994263 -0.0020619490593436 )
( 14.276122964444507 1.7712623683881652 -0.0196884722276204 )
( 13.958201029602847 1.8734800029661287 -0.0366306537574595 )
( 13.637669332636849 1.9651310363769856 -0.0508812044982364 )
( 13.30471883245908 2.0666175308911097 -0.0633253748686993 )
( 12.903256578672831 2.211845219410616 -0.0749219768290909 )
( 12.488393226673974 2.3818614141090944 -0.0846760881742222 )
( 12.078724213717402 2.5651915822256064 -0.0930403325838515 )
( 11.676495236322182 2.753986464513713 -0.0986673499921349 )
( 11.296023825764882 2.9219453544571863 -0.1018793113558143 )
( 10.914052830214766 3.064440737453878 -0.103127813979293 )
( 10.532275000447676 3.2394620261696514 -0.1053814038804108 )
( 10.16693653134041 3.4786041852067746 -0.1104208181617582 )
( 9.809421953974017 3.791983897586792 -0.1122856735244485 )
( 9.334113474494108 4.10780344927641 -0.1109837875272771 )
( 8.06717872654804 3.9418366647912544 -0.0976982904391367 )
( 15.349038894256568 1.2955161599356162 0.0583670062269116 )
( 15.084383376714875 1.3930240327793264 0.0355719297377793 )
( 14.772063486261914 1.5222436558434804 0.0105472558671237 )
( 14.502954937347184 1.60780277707508 -0.0080178183660403 )
( 14.20501568094144 1.6957640802990397 -0.0256161611945376 )
( 13.87930677797669 1.7871012496221597 -0.0425949071360297 )
( 13.550035183079132 1.8822961555217992 -0.0562650937910737 )
( 13.20040136846216 1.9895480217423296 -0.0686026000515084 )
( 12.779176997332907 2.1264732381939444 -0.0805045855561869 )
( 12.343338574385765 2.2961464795066626 -0.0896403886735691 )
( 11.92775911615253 2.473901249291735 -0.096525802733257 )
( 11.525264882143835 2.649994915288966 -0.1015523093095723 )
( 11.128157969027638 2.816589079402121 -0.1042871496467437 )
( 10.721773032121916 2.973657995102127 -0.1055348442097408 )
( 10.32626859118729 3.165546176140682 -0.1062670933523471 )
( 9.95168207625295 3.428013030745316 -0.1087995277859757 )
( 9.519090715341576 3.754211933839634 -0.1109943762317653 )
( 8.819518965297853 3.9642336596055223 -0.1069242478132343 )
( 7.257107861545329 3.597409511942681 -0.0878587851343623 )
( 15.306287133800382 1.2331918175578018 0.0507963394553144 )
( 15.035763973609336 1.3295679753247034 0.0285108432002252 )
( 14.71477352888895 1.4550366949403546 0.0038003894193786 )
( 14.44191969280029 1.5339409893595672 -0.0140441443921316 )
( 14.138545259385786 1.621433487142499 -0.0309117134777655 )
( 13.81286666829646 1.7152357402541665 -0.0477958898563762 )
( 13.479970384813392 1.8086726462413736 -0.061046422110912 )
( 13.108013378242712 1.911719048829042 -0.0728720905047802 )
( 12.674858273820432 2.045607267686474 -0.0848872486373012 )
( 12.230721321291242 2.211946992810295 -0.0933619242729041 )
( 11.797545707679015 2.3859003152185183 -0.0997675465198572 )
( 11.370531521845171 2.551198244264314 -0.1048500494353124 )
( 10.953436998377716 2.709563930460682 -0.1080155800911309 )
( 10.534693842035033 2.876107036628432 -0.1103121300056949 )
( 10.13038494530234 3.092816406282996 -0.1107637533193498 )
( 9.728147597850544 3.388199345452919 -0.1118983667376141 )
( 9.22855009439745 3.703569997838864 -0.1105700118399148 )
( 8.233765204965291 3.7391576486346456 -0.0993795199071157 )
( 6.544199653582339 3.268812554412192 -0.0806423692563136 )
( 15.268272831291757 1.1678603664808316 0.0441654542350232 )
( 14.996850710139222 1.26448677362961 0.0228056217805746 )
( 14.666296304241548 1.388726459601979 -0.0012954101072545 )
( 14.385117745425166 1.4618072250355962 -0.0189448257523938 )
( 14.07431695400567 1.5444677870289625 -0.0359594241038684 )
( 13.744553486518804 1.6371512536375643 -0.0522573431021341 )
( 13.40468311126818 1.718983463090046 -0.0656209789140219 )
( 13.020461033406075 1.819466492949274 -0.0774466856979704 )
( 12.587589619895416 1.962803813057597 -0.0883745818727596 )
( 12.136398403193802 2.125817862735864 -0.0967209009537068 )
( 11.680654413978708 2.299802674809722 -0.1039354790475594 )
( 11.228460883777274 2.4563081320617712 -0.1086410076118241 )
( 10.792953956104128 2.608079973583995 -0.1123682478465166 )
( 10.35177149477662 2.785474755035652 -0.1151554401192205 )
( 9.934761172638922 3.018089353383234 -0.1149022002492109 )
( 9.481052921789065 3.3306105638939085 -0.1158999755900718 )
( 8.891307593512726 3.608635748032693 -0.1129016474673548 )
( 7.72383133047639 3.509719614196661 -0.0963443894053498 )
( 5.870130119288692 2.9260115218077685 -0.0746648263173832 )
( 15.234750969402038 1.1116326219446406 0.0384153433834429 )
( 14.96036402232047 1.2032946601236452 0.01782651201958 )
( 14.623420991853056 1.320361636861051 -0.0059401973941916 )
( 14.335232389436664 1.39194570569762 -0.0237181879981844 )
( 14.017643190327744 1.467109631180604 -0.0407812893522957 )
( 13.68487252697519 1.5503046977942598 -0.0562138262136261 )
( 13.33081897811019 1.6262395327973935 -0.0698987552214296 )