/*--------------------------------*- C++ -*----------------------------------*\
| =========                 |                                                 |
| \\      /  F ield         | OpenFOAM: The Open Source CFD Toolbox           |
|  \\    /   O peration     | Version:  2112                                  |
|   \\  /    A nd           | Website:  www.openfoam.com                      |
|    \\/     M anipulation  |                                                 |
\*---------------------------------------------------------------------------*/
FoamFile
{
    version     2.0;
    format      ascii;
    arch        "LSB;label=32;scalar=64";
    class       volScalarField;
    location    "0.0064";
    object      k_LES;
}
// * * * * * * * * * * * * * * * * * * * * * * * * * * * * * * * * * * * * * // 
 
dimensions      [0 2 -2 0 0 0 0];
 
internalField   nonuniform List<scalar> 
13597
(
0.2194454403116112
0.218334118017174
0.2150062177455028
0.2123937408710755
0.2111552151795118
0.2097057338848766
0.2075278922941496
0.2053858461984356
0.2031055449670709
0.2006930756450418
0.1994291553697958
0.1990237961924062
0.198912389217323
0.1998520303356184
0.2019201659031383
0.2048854026945547
0.2085639338409951
0.2121955290701051
0.2159871025004897
0.2326655749853138
0.2319944025859433
0.2277952968546138
0.2260908516562774
0.2250725745295838
0.2231231965023291
0.2207285675224396
0.2186547851075922
0.2167184768006733
0.2141609211759814
0.212391195212777
0.2112433847629692
0.2103069551060177
0.2106929926705048
0.2127640800060586
0.2148333770333029
0.21665659618131
0.2192557095464459
0.2223365360416259
0.2405476595326096
0.2392744070840509
0.2340514923793197
0.2312781257251604
0.2300607712419714
0.2282998391391431
0.2254867451288828
0.2229218287566414
0.2208360107505666
0.2190888754507488
0.217744372824112
0.2177277421545447
0.2187917489895435
0.2205109659457201
0.2231486834460575
0.225560527926197
0.2277098170780254
0.2301002031421294
0.2322879379124943
0.2429791230210201
0.2408778961625106
0.2358319927144012
0.2339655227476135
0.2338341941194602
0.2325302638918913
0.23036849140451
0.2289213636458209
0.2277286048093692
0.2270267549864064
0.2264770780539125
0.2275195001783834
0.2293370387735474
0.2319110835004449
0.2346535666410143
0.2369842916095243
0.2393740494466878
0.2420155881824043
0.2446534425829459
0.2429633060112749
0.240178303512153
0.2374778270336373
0.2379877869403973
0.238144345014965
0.2373654559821125
0.2358492866316549
0.2344919713142701
0.2336812357852174
0.2333356730484779
0.2343187478145115
0.2369974926336465
0.240314943667182
0.2444425873905562
0.2485691387527765
0.2523893014051193
0.2560939737438034
0.2600018601438035
0.264107627208598
0.2425592169430068
0.2399168939708205
0.2391488433943461
0.2410171758247227
0.2408641657429545
0.2403205175984469
0.2387336040397678
0.2377101897829862
0.2386163626641871
0.240287584792971
0.2434131022246262
0.2478884491765834
0.2534843442257515
0.2590594518272549
0.2646427179811769
0.2700877718348966
0.2751147574898157
0.2799226925100671
0.2851169219562313
0.2420365990083629
0.2403777236910256
0.2407822981210172
0.2422064107866684
0.2415875548378354
0.2409488485240754
0.2400384256738637
0.2406132365262271
0.2440549421897639
0.2485758254693724
0.2540079422990753
0.2607595643394764
0.2679337855181238
0.2746205572448974
0.2814208785820144
0.2878040656010628
0.2936937138081409
0.2996139712522663
0.3058882901178831
0.2423249432014772
0.2414801062674252
0.2419821594173264
0.2424562148367511
0.2412093079125137
0.2403666866451455
0.2418002016133777
0.2453609153119454
0.2508588110390033
0.2578511505290739
0.2657238806749383
0.2744147165171073
0.2827334174340761
0.2905548287099935
0.2980321706867044
0.305104201835149
0.3120413072766434
0.3191572783604687
0.3263797373348565
0.2422951863958662
0.2410992096216213
0.2408274028309454
0.2407464346517094
0.2401608889779649
0.2407031597408793
0.2441505031535021
0.2505280629509636
0.2583467617826322
0.2677485752125666
0.2775327809203822
0.2874567406038421
0.2969544671883374
0.306119847827754
0.3146327428928888
0.3227145962455109
0.3306180475429001
0.3386939614189468
0.3469797934582259
0.2424078937344692
0.2397385311667658
0.2376834380113822
0.2377638146250689
0.2390780450937653
0.2420964979383567
0.2474173833812958
0.2561879652798337
0.2666074079368838
0.277729728628828
0.2892239501976267
0.3003602529426502
0.3111412163923842
0.3214532215763097
0.3308202252799458
0.3399430096684063
0.3490767316299301
0.3582854688359557
0.3677545757604076
0.2416012783369455
0.2366987136976868
0.2341705497761985
0.2351094357677174
0.2380968983424461
0.2440035146641606
0.2525498870035548
0.2634579195441505
0.2756274484596104
0.2879460164873367
0.3003365270444557
0.3128785092805961
0.3246646985875405
0.3357869443026878
0.3465747056020739
0.3570245430381087
0.3676904163209796
0.3784104968997341
0.3896638071098511
0.2377699973200538
0.2313636851795752
0.2304987044840475
0.2330457886144783
0.2382894348151593
0.247019607315636
0.258386281431
0.2714651617951454
0.2845716098381005
0.2976427997924126
0.3111125877238853
0.3248803006411676
0.3376344596609379
0.3500784402101491
0.3627238069248435
0.3748647915540793
0.387075684800658
0.4000477565057777
0.4141818046813689
0.2330050740928504
0.226089097425193
0.2269253149202483
0.2319082462815292
0.2400195711008342
0.2512254698030552
0.2646419983820296
0.2793253844337705
0.2937328486846127
0.3074793515950479
0.3220099485270017
0.3366728506460399
0.3508163070481612
0.3652892009633522
0.3794069798556448
0.3932117642475681
0.4081757437022892
0.4245535942608203
0.441991856439235
0.2285187642043488
0.2216392601487822
0.2240480954555795
0.2317390314228991
0.2428724399473456
0.2564387175590252
0.2711980529749833
0.2862557908010545
0.3017381443321507
0.3168231398866179
0.3320132109579313
0.3482435126856452
0.3644206947497137
0.3804455967431963
0.3964786232624778
0.4132592807522039
0.4319970211132101
0.4521170545472298
0.4736487768524269
0.2231090843667379
0.217017283875961
0.2228752641720283
0.2330452501636969
0.2468595005236503
0.2619774069528679
0.2775637474741205
0.2935391431769134
0.3094937969559718
0.3255153123822554
0.34210018204255
0.3601943683827601
0.3786372409427907
0.3963791182547432
0.4150220568797331
0.4357205361638813
0.4584539216435279
0.4831974704283585
0.5131912090787033
0.2174936294239075
0.2131439899736841
0.2225467718173863
0.2351594558090411
0.2508341647296869
0.2672131666686658
0.2838248692740329
0.3006980170606522
0.3172976949739769
0.3341475197038429
0.3528250330743268
0.3730934303237217
0.3931682252923688
0.4132354792608437
0.4351398684029373
0.4595968882845429
0.4872506094786873
0.5208565356086218
0.5664890492799028
0.2122891585327149
0.210739509194908
0.2234428883555665
0.2379110828174865
0.2547552192382651
0.2725409633002594
0.2899970515788155
0.3070913588897468
0.3242983732728473
0.3425686830428667
0.3623976665585984
0.3848355576967535
0.4074886341589991
0.4304842240533453
0.4563515103981473
0.4855683125552004
0.52082829294196
0.5690550340590419
0.631402131567757
0.2080391587251714
0.2095067618901115
0.225179541093114
0.2412109418176069
0.2588407548929017
0.277533471531857
0.295183767800719
0.3126455471912384
0.3312410780773691
0.3506056478780109
0.3718397668557383
0.396542757148728
0.4222677461896782
0.4490457496047754
0.4791409851791248
0.5142447723107707
0.5622871918600229
0.6280546489603833
0.6913367041111552
0.2056100479823558
0.2096100129878803
0.2275222611492309
0.244811305077119
0.2631156526718233
0.2825391267141391
0.2999473928366183
0.3177481051698404
0.3376716832367057
0.3584099096041567
0.3823371863670614
0.4090338336343016
0.4376903035421779
0.4689929329797004
0.5037946137254528
0.5482675523282183
0.6131249075788033
0.694978183678071
0.7391963821120988
0.2043625415862804
0.2106559133928177
0.2305342204343671
0.2486840257196197
0.2674390810081264
0.2871871712414275
0.3052241272340126
0.3231722058864614
0.3433618344135603
0.3659517397889292
0.3924381345997632
0.4218549318493515
0.4538404244933599
0.4889691097102698
0.5320606306457666
0.589237309794154
0.6717881386989596
0.7621569435770216
0.7721308460463328
0.2038469575566586
0.2119497115605363
0.2328165766468463
0.2517632909070628
0.271103800971766
0.2909570772568116
0.3097256486825657
0.3279394982596013
0.348996425118697
0.3734191371387407
0.4023218104293764
0.4355629037601523
0.470541272440516
0.5090098385421823
0.5619504290516253
0.6365781049332675
0.7363792166531418
0.8225833866318141
0.7677098948833253
0.2042706184114576
0.2137978773402424
0.2353607955780373
0.254500641763801
0.2745684308975133
0.2951505662050054
0.3138801418934423
0.3320470704959573
0.3547495367620452
0.3812620493682112
0.4120095068866026
0.4474803082675608
0.4858497275545063
0.5313942497719139
0.5939054537908638
0.6877581753390353
0.8010364068412356
0.8707811539811843
0.7108584121268635
0.2052285548559471
0.216247096796384
0.2382338598758512
0.2572094463242463
0.2775062697632884
0.2982991057019896
0.317778301669404
0.3368026213029365
0.3607063466497396
0.3895787001861622
0.4223588910909762
0.4593268337040536
0.5010317292065284
0.5544287210502653
0.6319550769681723
0.7438415585137782
0.8626747416479881
0.8810183455032533
0.6468127772293091
0.206673890103861
0.2186740230956854
0.2412629928213121
0.2601399589967341
0.2800376932489836
0.3004718244426478
0.3205278088719229
0.3409627620158429
0.3658701879038123
0.3962952767630497
0.4317714178935768
0.4726424456007941
0.5188194597746669
0.5797472951529142
0.6731128544115124
0.801171014514368
0.918389763236592
0.8631832605916377
0.5875964475845646
0.2084610096132956
0.2205473365578218
0.2435601182158453
0.2628138372861659
0.28246389073138
0.3030034189503828
0.3230121108656853
0.3441730458361066
0.3700940582450208
0.4019434671948363
0.4405043842894452
0.48533208916131
0.5367676317913009
0.6104966677733952
0.7169302335889602
0.8543223143226348
0.957423899673739
0.8406083845384537
0.523091135416875
0.2099986893708483
0.2221694320393653
0.2452879807425058
0.2648553143800067
0.284815461960775
0.3053648184845229
0.3255700681851313
0.3473403547045124
0.3743659632386679
0.4083561816365072
0.4492513899165039
0.4970443338979919
0.554646158606429
0.6401427797535217
0.7600187905685396
0.9051172726408592
0.9658304005049811
0.7960390690774085
0.4745685419594006
0.2111965967695269
0.2236526028576412
0.2471211900032971
0.2666414915310757
0.2867212700713415
0.3074355273429729
0.3280843308782658
0.3507244670267894
0.3789789928871781
0.4146922068572897
0.4575935191232552
0.5081688511473239
0.5722628283635625
0.6663249338968994
0.8006811252364647
0.9499601820327704
0.9672740756538166
0.7477212561371501
0.4341766309319517
0.2123756309615737
0.224885274169525
0.2485126282156353
0.2686352152221496
0.2886269354754872
0.3094652236069135
0.3304889124070214
0.3537836312695958
0.3831964436117945
0.4211922579659279
0.4666770703510827
0.5187752920768223
0.5888007714712323
0.6932950224001058
0.8443271664895731
0.9923173708302526
0.980557805055136
0.7156472165863558
0.4005908458790051
0.2131262772660498
0.2257230097675992
0.2492622445451139
0.27027329249537
0.2899388582159618
0.3106592059376035
0.3322504265788409
0.3561612019020057
0.3870115116628658
0.4270026117818073
0.474093477721514
0.5298478873295213
0.6094794193633909
0.7220228107949924
0.8833936425080704
1.0234856457271206
0.9788663441154544
0.6867083985406377
0.3793875985681897
0.2135514565479764
0.2262096321231477
0.2501116744234346
0.2715167491245872
0.2908247793764211
0.3114550053125988
0.3333952358177696
0.3580323288615035
0.3907113476184516
0.4315000231929512
0.4795440276002191
0.5413082881212186
0.6278373473441415
0.7487937320881615
0.916714850318502
1.0190731418372816
0.9402140265652142
0.6583253222039659
0.3669086366129191
0.2141584453121595
0.2268777999295489
0.2511330256532002
0.2725608518100934
0.2919189030640172
0.3123562384560411
0.3344349289391239
0.3602542363296163
0.3942676005912444
0.4360125358579149
0.4857409494681098
0.5520204219730958
0.6411997031586317
0.7725801264102587
0.9466228268701355
1.0095989969470704
0.8995360959978198
0.632769648604047
0.3579074786850446
0.2146295762580884
0.2275030523555041
0.2519274887493218
0.2729838264162565
0.2925665545120074
0.3131635589612005
0.3357104836820494
0.3629798415101388
0.3977275128835494
0.4405082138952814
0.492123231778507
0.5613964982033419
0.6551207836296332
0.8011126909105182
0.974669443913519
1.018482280531793
0.8873196037450621
0.6110383761858522
0.3468535266523587
0.2146242065635438
0.2280820751208476
0.2527250627550041
0.273410721058046
0.2930905972548996
0.3137550832479634
0.3367769472594256
0.3651471510161304
0.400891173143482
0.4450049617773138
0.4984939829120572
0.5707707264672617
0.6682137776004575
0.8254002400722764
1.0009363430580445
1.0332169774979365
0.8862830229040838
0.5951218831131935
0.3342557159397952
0.2144896622573762
0.2284461190452197
0.2529197250942052
0.2736418014468077
0.2938600973298381
0.3144869100917613
0.3372651401573484
0.366478909262789
0.4036192923878642
0.4496647193128479
0.5056171059943918
0.5800560436841419
0.6799630769402862
0.8435764461751664
1.0239840284489363
1.0476077741580785
0.8871220128216208
0.5853312192497405
0.3263667126160114
0.2145768853513184
0.2287291206539118
0.2530381720975941
0.2737287636024275
0.2945888954841011
0.3152652043264664
0.3377664910891058
0.367425829093139
0.4056642995155131
0.4532493129206225
0.5112753516581419
0.5875021261583434
0.6920331486790628
0.86175260788964
1.0412941032635006
1.0552447381264818
0.8840807825082897
0.5773606297167294
0.3213297192689749
0.2146288916079784
0.2288663842309578
0.2534871562959115
0.2742435800068389
0.2950989358327791
0.3155799975633084
0.3381016408998503
0.3682027554710331
0.4074109452356218
0.4556809714589234
0.5152887154945196
0.593772258530758
0.7028253895085478
0.8744931116981906
1.054318547871225
1.0629370287552733
0.8793419301953046
0.5682985792300956
0.3153758971477784
0.2145805597646104
0.2289247123902041
0.2536869734456168
0.2746407057948442
0.2956881197715291
0.3161685244120209
0.3387626473936523
0.3690243331892328
0.409089541779456
0.4581849904506992
0.519108856321116
0.6000624544793891
0.7118742584550181
0.8854282765148828
1.0644913837558387
1.065471106471671
0.8783629853478808
0.5656802301505959
0.3105793258610329
0.2145699316748526
0.2291776818084041
0.2536536409470356
0.2744132925868598
0.295546749851643
0.3161113672595839
0.3394473444578907
0.3701491763873605
0.4110448566901105
0.4603347045012543
0.5224351397762276
0.6059614080586204
0.7226343724015087
0.8974499361085551
1.0680105274149432
1.063588024151204
0.8736499597352493
0.5638642076457732
0.3081422037417634
0.2142666539119308
0.2290942370167373
0.2534726139827586
0.2742180772646741
0.2953662334820979
0.3156101085548101
0.3393464075795226
0.3706203915997964
0.4126337060915935
0.4620067690053262
0.5249276932709908
0.6108312191751463
0.7346939725919774
0.9122145343340304
1.0685213765314916
1.0582072091436878
0.8643148124294752
0.5578628547391253
0.3072881557120355
0.213703118848263
0.2286646552442519
0.2531489440383712
0.2742609132815214
0.2953012760272077
0.3153327244503707
0.3392430166487876
0.3703868874684007
0.4129264506692698
0.4629410289928928
0.5265725988286865
0.6140310459670657
0.7418001657234032
0.923295421329534
1.0698379883236973
1.0498725704351772
0.8582004968165805
0.5547490856228428
0.3071598060106119
0.2132501580157864
0.2282521764676159
0.2531817405125176
0.2743298333188066
0.2948874496234482
0.3149978919081293
0.3392002969924781
0.3704654499354185
0.413455581537548
0.4645804352689859
0.5284674434953063
0.6175202531643268
0.7471813543546387
0.928578397156727
1.0679926238287172
1.040144281598483
0.8510865184332872
0.5512759949253957
0.3071569459064671
0.2129722901296429
0.228021632269629
0.2534952139172848
0.2745460960056831
0.2946044852857639
0.3149330719627878
0.3394153941459918
0.3709278107710513
0.4147043399297312
0.4674441461546139
0.5311364394968834
0.6209965492588596
0.7521448860104769
0.930949003569678
1.0665959054032768
1.0358574566930558
0.8440411624200101
0.5449711736758968
0.3056807521151917
0.2128306276230101
0.2277406784920309
0.2532779192689774
0.2741944748960566
0.2942148488483047
0.3149864534870416
0.3397135834278874
0.371105207388107
0.4147317913427752
0.4688644969687165
0.5333047243152992
0.6226323787751813
0.7532575827470523
0.934509446470978
1.071100808667318
1.035232165540935
0.8380336144458337
0.5391852743128184
0.3022659598508264
0.2127804475822626
0.2276003873601408
0.2529334341668679
0.2733924159764587
0.2936584963266623
0.3149926828793746
0.3396605726062496
0.3712136081059963
0.4152369221622436
0.4704109806024886
0.5353636622382306
0.6251502685988257
0.7555441044208107
0.9381469361920612
1.068318017170811
1.0266228641675423
0.8312974199538724
0.5352500206170699
0.3004480108088365
0.1461544364930803
0.1462458440264332
0.1474159266568269
0.1514618218667894
0.1565124504753027
0.1612349240747279
0.1665718405003396
0.1711545133346044
0.1753449047799338
0.1790112578829663
0.1820372464798387
0.1846763027195138
0.1858667411090465
0.1857740199595908
0.1846867309353644
0.1825185086096883
0.179738671623694
0.1763046914231634
0.1723246596254259
0.1506658907265743
0.1538769753332838
0.1589459322010838
0.1674408268310521
0.1758056117940011
0.1825603603027055
0.1891052339863648
0.1940787823323115
0.1967186809643687
0.1982198593428172
0.1988097617800183
0.198437507328261
0.1970218604778594
0.1938287334441808
0.1894809276032141
0.1850562928669276
0.181082611061012
0.1773602814626701
0.1734894588285133
0.1632510428816023
0.170465018523134
0.1802066049107634
0.1917934671874316
0.2010764568522745
0.2081570917062848
0.2129602719988856
0.2156890217888243
0.2162373494768162
0.2150520277812192
0.2123112855193567
0.2082320553634744
0.2031772035581589
0.1980808721353424
0.193764244485129
0.1905172191072013
0.1879631675473632
0.1855379081888236
0.1833087700646299
0.1805006501018623
0.1898387716637606
0.2008292954683688
0.2123203839094211
0.2196207133791435
0.2245020513856377
0.2267773023385089
0.2263090178827825
0.2234074081496182
0.2184999342493944
0.2131397012870368
0.2073879033602214
0.2017480296846481
0.1981223608929682
0.1959608261667701
0.195087644522701
0.1953793694358294
0.1965181607277165
0.1986783400606849
0.1953296170083088
0.204289657638524
0.214198825161573
0.2233883312035228
0.2278304372577188
0.2293419624854421
0.2291931167164368
0.2261870841812967
0.2213570094468254
0.215610877561308
0.2101952685928847
0.2062082675667175
0.2037787363127054
0.2040596041313396
0.2058297865389538
0.2087236368110633
0.2126991262425995
0.2174566449140899
0.2232498734349319
0.2039539011076389
0.2109453820548954
0.2191592275014565
0.226053011071272
0.2281652355038404
0.2276650362641939
0.2257394733647974
0.2217109581348461
0.2175267607810331
0.2136314335213941
0.2103399801886466
0.2096277456288282
0.2118101194628744
0.2158129666828427
0.2208258440922143
0.2264950101675232
0.2321152287503179
0.2381306514555924
0.2448354759535422
0.2077791682370902
0.2119478292144181
0.2177895651931164
0.2239576653427014
0.2253517848490303
0.2242676159948896
0.2220663882030199
0.2188050851290484
0.2164474534516397
0.2149918229183374
0.2151194124226648
0.2179078940225996
0.2229441677721403
0.2293306642517053
0.2360755006414292
0.2426575933802326
0.2487853784131304
0.2551703358502009
0.2618566397094862
0.2063487440245608
0.2087479275737455
0.2150707305647396
0.220470540732402
0.2214493381758675
0.2207685497267694
0.2194543434063468
0.2180247465517608
0.2177452956100121
0.2190115957697674
0.2224222533244959
0.2282818862072588
0.2350147588526334
0.2427471257611429
0.2505255514672524
0.2575842868508163
0.2642314396715665
0.2712205994667688
0.2783545322707153
0.2033110155976814
0.2051670770807721
0.2118683222052502
0.2172931264098928
0.2187055894466115
0.2190451993497964
0.2192901501110794
0.2199538131910319
0.2215840719970804
0.2254100508570814
0.2312126934031253
0.2389126266997677
0.2477037423481056
0.2563998930977506
0.264658998035926
0.2725386088318675
0.2807283906783409
0.2890343023049116
0.2968435112484553
0.1996753348490079
0.2018286397703852
0.2094033181101762
0.215447760673773
0.217630206446858
0.2195144750717164
0.2212983064932158
0.2238095634081693
0.2272325229123805
0.2333506130286322
0.2414030168586317
0.2502508807716581
0.2602749715759281
0.2702815581915163
0.280072280448932
0.2895398514035955
0.299525586863925
0.309229313589995
0.3181963922624575
0.1956013178906232
0.1991349137297446
0.2080057943999145
0.2148151521004074
0.2184345683875892
0.2212066880494341
0.2241050188843777
0.2282013695166379
0.233632873169748
0.2416499924916518
0.25188443663035
0.2627738260250669
0.2741516152699734
0.285920521892244
0.2975176557257803
0.3087826430029486
0.3201106986084797
0.3314974096440382
0.3424877087841056
0.1926889778998401
0.1974607673954836
0.2075662799683349
0.2148910381265766
0.2195726321034091
0.2237174226261855
0.2280809130260986
0.2336388933016123
0.2412116763720881
0.2508777577144683
0.2633094087462995
0.276570455934617
0.2895708492337069
0.3032215591655383
0.3163737301676754
0.3296342143156582
0.3431057472171957
0.3566939104393866
0.3700055625704146
0.1905530760741285
0.1961009334520469
0.2080278440607839
0.2164271535141744
0.2216773738810767
0.2268472367723737
0.23253641169503
0.239826054116335
0.2497234839036605
0.2614409258390378
0.2753497014489969
0.2909854250325374
0.3060679286524508
0.321436358815959
0.3366970374222611
0.3521958459822533
0.368579203913437
0.3851810470437278
0.4015608351950624
0.1894593817765875
0.1963981284735634
0.2092965016857869
0.2183964380800411
0.2246655074556254
0.2300833721349218
0.2371023499308656
0.2470319706924325
0.2594030433924439
0.2730700738556861
0.2886793441927634
0.3059700221185042
0.3230140945184919
0.3401587519119638
0.3581782394287148
0.3771958889709934
0.3964062144073
0.4164304468212159
0.4372292881753729
0.1892629065280243
0.1973401663316081
0.2107017804071985
0.2198459066477062
0.2271969479532059
0.2340735727200019
0.24251925434141
0.2541999702496739
0.2683487430293778
0.2842220764648777
0.3019533798217142
0.3208588617398377
0.3402775869698727
0.3601937188689856
0.380892589466798
0.4036422967193237
0.4270641163510077
0.4517043772202199
0.4805606495557681
0.1894468996346073
0.1981287581747582
0.2125207572339635
0.221988785996707
0.2301169687327919
0.2383204660496188
0.2485391798462266
0.2618008648632721
0.2769022432927039
0.2950050504798664
0.3145333557544584
0.3358434480628284
0.3585234409708404
0.3814808201339071
0.405164213807694
0.4307948964730134
0.4596060807077066
0.4926891058840095
0.5341496073648198
0.190193926501433
0.19927256167237
0.2146088404800929
0.224350343058435
0.2332381576417098
0.2422903196341129
0.2543283017328078
0.2697284347377551
0.2866212285509788
0.3059106996341417
0.3270115071853348
0.3512469650807969
0.3766295428343702
0.4024241628531837
0.4303923187245378
0.4604394967038613
0.4956231062907693
0.5409702070801834
0.5945491875040819
0.1912480094110217
0.2007896125459521
0.2168038204283599
0.2269125652731632
0.2361379312186462
0.2467762082689517
0.2604130679460605
0.2771954995139891
0.296347700124615
0.316723493543247
0.339767536670634
0.3669461955674757
0.3950676568585936
0.4246324435556149
0.4565984054497269
0.492757863284069
0.5382304014401726
0.5997812381416692
0.656357553289929
0.1921482977934093
0.2022325005166635
0.2189892507384504
0.2295664658699335
0.2393438749025217
0.2511040270738918
0.266445983922193
0.2849395439485302
0.3052106916673791
0.3270038230635224
0.3526619531328865
0.3819831239458988
0.4135800013413565
0.4473106090645203
0.4834116248915667
0.5284608939235205
0.588307244887803
0.6630341685592139
0.7042568318896655
0.1931200527146434
0.2034271842623306
0.220598012489685
0.2318009898331908
0.2427951470158798
0.2558472073805292
0.2722862579402834
0.2921709524866365
0.313694492770675
0.3371247081783242
0.3656976059965693
0.3979384792208005
0.4331359828350204
0.4709271438138039
0.5126657187630389
0.5679020219056763
0.6457574459751547
0.7240782379552836
0.7342569074830476
0.1935132802996123
0.2049116115698306
0.2224770789912813
0.2343588303101631
0.2464214410246537
0.2610844612254588
0.2788966919966993
0.2991332978705531
0.3215153876400928
0.3470341592140019
0.3785942308041178
0.4148459343406108
0.4531294167753604
0.4954865006097543
0.5456218441632396
0.6135391458092868
0.7061198054588567
0.7813163872905386
0.7355964859067329
0.1940817417907525
0.206243779421617
0.2247826259786537
0.2371679899855026
0.2501184241988792
0.2658001476739363
0.284962948506025
0.3060301300657366
0.3292364501488183
0.3568414395006032
0.3908487213153196
0.4303715944510519
0.4720573496800524
0.5193271771358408
0.5779617042120645
0.6636283021293813
0.7722822584658322
0.8391620089169611
0.6872205297287431
0.194804074546159
0.2070044027440301
0.226758275209181
0.2400729918659251
0.2534483407847041
0.2700079446587516
0.2901067452120955
0.3121801635468244
0.3372624668250127
0.3671264243009624
0.4036827264712653
0.4461596050809138
0.4921553811454934
0.5449928486960546
0.6162831784125324
0.7206401190769064
0.8372908240016598
0.8512085935274682
0.6248400983337146
0.1957277067534332
0.2084355106934108
0.2286600529941696
0.2428372971816222
0.2569446301913701
0.2741980800874664
0.2945831458815656
0.3172315840169475
0.3441896725372999
0.3769607970726512
0.4162419208527113
0.4612879593232148
0.5119441298197653
0.5720857806110161
0.6586856820717625
0.7807499880175423
0.8907747108811743
0.8290553592003549
0.5736210342189259
0.1968671347523694
0.210207064542389
0.2307203399174807
0.2451955493354334
0.2604562287201457
0.2782894181173137
0.2986056226976439
0.3220100755409942
0.3506342838471605
0.386322215218941
0.4287783523229892
0.4765399723071448
0.5313871206474915
0.6024671742262627
0.7034711073749877
0.8337489614255713
0.9266472728078978
0.8151324694371263
0.5211547523169641
0.1976440267822733
0.2111064389204065
0.2324489086754902
0.2478488205578207
0.2638886919715781
0.2821106851425876
0.3030822880220203
0.3274648260772321
0.3573536573428848
0.3951431195173643
0.4402799254064883
0.4914339755303022
0.5495187263839082
0.630798516754449
0.7469266622574131
0.8800129333690838
0.927018963941448
0.7685365616245304
0.4712400844491049
0.1986536861948002
0.2120648870624218
0.234012851546678
0.2504615465423584
0.2671225239799198
0.2857481700503766
0.307735370665225
0.3328457972588863
0.3637650735792726
0.4028198802757522
0.4509511694995604
0.50619525857356
0.5685615266295838
0.6566411705931006
0.785643293776055
0.9227297836438532
0.929296204797202
0.7245882067069537
0.4297737583396924
0.1996562573337642
0.2132261344975212
0.2356358569559515
0.2525345618751334
0.2699408820361862
0.2893239836326255
0.3116589646410749
0.3372912231425726
0.3694598441491061
0.4100426739930297
0.4611155236969912
0.519107477732236
0.5885912063142256
0.6867449555772469
0.8288564909985056
0.9684892997414304
0.948056936056924
0.7038903933015733
0.4029098027225171
0.2004520880029001
0.214615312446931
0.2374114375451597
0.2542201124268364
0.2723373567935374
0.292492348417674
0.314935689777954
0.3413918921651569
0.3747949070023027
0.4173441919400543
0.4693257163647822
0.5299970413698488
0.6081816371216863
0.7154689808993067
0.8650746302685027
0.9922081458490488
0.944808276438799
0.6811317149846995
0.3847694962030721
0.2015169565733924
0.2164015153890249
0.2391997578552895
0.2559226311797493
0.2741003895028471
0.2947572473149409
0.3177532082620593
0.345458695554309
0.379393455111783
0.4233891006081589
0.4776479481482736
0.5433581844850225
0.6289271274845141
0.7399341449206098
0.8943033424264809
0.9909576117226024
0.9077951225155846
0.646080253995613
0.3668217852514842
0.2025225217803716
0.2178637309187513
0.240647087369982
0.2574972930001389
0.275807998830107
0.2966491901791921
0.3200272063930298
0.3494677810848904
0.383962573899792
0.4285376558661704
0.4851777994071197
0.5544881068695037
0.6432262767592898
0.7626947992286306
0.9270791766303804
0.991795573757078
0.8728171043599294
0.6127499650407944
0.3507337833904901
0.2034173981295582
0.2188406262179941
0.2422166095623601
0.2591044648981424
0.2776962076550754
0.2989075106838276
0.3226879816498211
0.3529906925844447
0.3888743567656624
0.4347968760420759
0.4926377296179956
0.563810179282992
0.6552744890221519
0.7872900983965525
0.9585811064865476
1.0042863898860814
0.8643793928096981
0.592409608790708
0.3370614361821916
0.204852226084597
0.2201377442860592
0.2441913310766055
0.2611865677281254
0.2798729157187433
0.301219913736108
0.3252670087936288
0.3552911405172725
0.3923759152296847
0.4406130629245579
0.5005600059860081
0.574398411382162
0.6702832148845569
0.8117315815224865
0.984366919769762
1.0227516940965302
0.8650009402171076
0.5776619240623234
0.3299751702782175
0.2059828626110808
0.2211792736990135
0.2454681791599352
0.2629656950572883
0.2819936605229604
0.303262538029136
0.3276337009658638
0.35743815419918
0.3952566260050522
0.4446574073838621
0.5053530833143826
0.5828207128624512
0.6824350763193007
0.8316844967766851
1.0028888568843282
1.03388509910103
0.8673629122291742
0.5666965796960078
0.3224268650573723
0.2068191600689623
0.2217586739365766
0.2462152837256104
0.2644610702030698
0.2840087687447477
0.3053877294115966
0.3297050040283714
0.3596859689314056
0.3989615161299001
0.4490509837245198
0.5101290348335592
0.590545682726452
0.6910546866322567
0.8456808733228675
1.0174746631486171
1.0442501898639114
0.870358804415972
0.5582173557049585
0.314382317144625
0.2077356688029993
0.2226630312371628
0.2473692418318477
0.2661444309260803
0.2858991251604481
0.3073169315477208
0.3314154724271712
0.3619490682296128
0.4026188274387634
0.4532090933433946
0.516109225707365
0.5974009896596476
0.6978596411541894
0.8588083110112084
1.0353076947789346
1.054448884098728
0.8666663579215297
0.5525521898992852
0.3114280505191715
0.2086672490192893
0.2237829971273158
0.2487548350661085
0.2677908361349107
0.2869646287919921
0.3089457542428143
0.3333760512417699
0.3640404460085393
0.4053935713123422
0.4562752876888941
0.5195995681493404
0.6024103035448009
0.7068624401800429
0.8725486377018294
1.0494466357315473
1.060487274114655
0.8638342782996005
0.5503298468418616
0.3111036687847575
0.2099243311411192