/*--------------------------------*- C++ -*----------------------------------*\
| =========                 |                                                 |
| \\      /  F ield         | OpenFOAM: The Open Source CFD Toolbox           |
|  \\    /   O peration     | Version:  2112                                  |
|   \\  /    A nd           | Website:  www.openfoam.com                      |
|    \\/     M anipulation  |                                                 |
\*---------------------------------------------------------------------------*/
FoamFile
{
    version     2.0;
    format      ascii;
    arch        "LSB;label=32;scalar=64";
    class       volSymmTensorField;
    location    "0.0064";
    object      tauij_LES;
}
// * * * * * * * * * * * * * * * * * * * * * * * * * * * * * * * * * * * * * // 
 
dimensions      [0 2 -2 0 0 0 0];
 
internalField   nonuniform List<symmTensor> 
13597
(
( 0.1807209179747989 0.03245176422332 -0.000725544005049 0.0798786810183952 -0.0490897521659046 0.178291281630028 )
( 0.1827424027195227 0.0364870815468027 -0.0049572739684344 0.0803604862157822 -0.0487866970370875 0.1735653470990428 )
( 0.1878957341741796 0.0438700040961702 -0.0127177450043353 0.0806747128645223 -0.0476599334060559 0.1614419884523037 )
( 0.1961889368198719 0.0533768370623295 -0.0222429731388265 0.0823087954431552 -0.0470540943553826 0.1462897494791238 )
( 0.2046744838943205 0.0605825086759491 -0.0296895646355111 0.0832642413081466 -0.0464941461159135 0.1343717051565564 )
( 0.212222426723137 0.0646447173901492 -0.0339439440691273 0.0818917025360515 -0.0444946053335294 0.1252973385105647 )
( 0.2191878403287172 0.0675968802801368 -0.0368837756825231 0.0796845506414365 -0.041907583681452 0.1161833936181453 )
( 0.2267327035503485 0.0696738446983035 -0.0385449652191946 0.0764790356101569 -0.0382383426657992 0.1075599532363657 )
( 0.2340944567614274 0.0703731452920032 -0.0381503400653315 0.0724714151508517 -0.0335527155039693 0.0996452180218626 )
( 0.2402309560083439 0.0697332385450118 -0.0363807572617367 0.068269146383807 -0.0283863056863331 0.0928860488979327 )
( 0.2469373113170747 0.0681881676735207 -0.0330782696122272 0.0636774680650977 -0.0221006148916883 0.0882435313574189 )
( 0.2531585793924554 0.0660117501981551 -0.0286125291660299 0.0600273186155297 -0.0154183441539497 0.0848616943768272 )
( 0.2580833554544474 0.0626643365149067 -0.022855275688387 0.0568488182011768 -0.0085893494607507 0.0828926047790217 )
( 0.2623462703816424 0.0583105738731525 -0.0160339893725682 0.0544583553526929 -0.001591100307221 0.0828994349369015 )
( 0.2652773568390191 0.0532956311793455 -0.0092063397878295 0.0534647780660852 0.0045823039522277 0.0850981969011722 )
( 0.2674103719274372 0.0479419456955946 -0.0017218306667683 0.0533874427434437 0.0102551824279678 0.0889729907182286 )
( 0.2693375050770955 0.0425957744946019 0.0064337220580684 0.0546956186069314 0.0157804027624496 0.0930947439979633 )
( 0.2693799569626531 0.0371852656011206 0.0127981378144493 0.0573388313751843 0.0204754553009461 0.0976722698023728 )
( 0.2685318251950289 0.0319220786017484 0.0175471004968787 0.0609311456976383 0.0243926253384117 0.1025112341083121 )
( 0.1826319062088383 0.0347256810936959 -0.0092867050949515 0.0841554018712592 -0.0458967662851312 0.1985438418905301 )
( 0.1850603413166303 0.0398734160925786 -0.0142354829878434 0.0840059836854566 -0.0448884361279243 0.1949224801697996 )
( 0.1898951827686469 0.0506870992594746 -0.0223861021178621 0.082766202082574 -0.0439291577436396 0.1829292088580068 )
( 0.1975303386484507 0.062855154168923 -0.0304603471290663 0.082858855047201 -0.0437564557402983 0.1717925096169031 )
( 0.2042062799028047 0.0703295013964494 -0.0347523545243635 0.081498659222496 -0.0426510842936981 0.1644402099338667 )
( 0.209888686377178 0.0753327123181128 -0.0355935737626006 0.0787103725564222 -0.0400573162872529 0.1576473340710579 )
( 0.2148415367101748 0.0787820999413682 -0.0345888677139585 0.0755033994841699 -0.0367486936743686 0.1511121988505345 )
( 0.2191883618000677 0.0810070656362005 -0.0315562712503858 0.0722177556627064 -0.0327377618390493 0.1459034527524102 )
( 0.2234855468726301 0.0820609127309128 -0.0260985095926407 0.0687781593112921 -0.027637930186283 0.1411732474174242 )
( 0.2256283445147225 0.0807996545864286 -0.0192506887492594 0.0654346851802507 -0.0221446386776467 0.1372588126569896 )
( 0.2266611148658426 0.0780727688376539 -0.0110874253822414 0.0627179474531896 -0.0158698032680535 0.1354033281065216 )
( 0.2265633068292656 0.0745228896487521 -0.0018765061413955 0.0612124214016518 -0.0090753630714502 0.134711041295021 )
( 0.2243923190113214 0.0693098822014377 0.0067545393014477 0.060682581472137 -0.0028240306533471 0.1355390097285768 )
( 0.2219096850060752 0.0631603366849868 0.0140341806191408 0.0615093816698725 0.0028136400534128 0.1379669186650619 )
( 0.2202561748774162 0.0571797458806964 0.0200456968327218 0.0639175371235781 0.0076108291642375 0.1413544480111227 )
( 0.2175256662052772 0.0512349350817128 0.0243745807218192 0.0671215622713359 0.0117780918820684 0.1450195255899928 )
( 0.2145456014567373 0.0457328923638708 0.0273826349003113 0.0706515560353749 0.0153933931424196 0.1481160348705077 )
( 0.2121833694893462 0.0405454105355324 0.0281485560965971 0.075061985049418 0.0181957422918957 0.1512660645541276 )
( 0.2099924708659359 0.0358884895196687 0.0269956881510401 0.0801431555054425 0.0206935034815199 0.1545374457118733 )
( 0.1815991998899289 0.0358367595311411 -0.0160686368421451 0.0893346667619585 -0.0392526147436857 0.2101614524133318 )
( 0.1831145946707629 0.0421952664339361 -0.0202058353179419 0.0896315595797007 -0.0371426432236381 0.2058026599176382 )
( 0.1859606601903891 0.0551534437801474 -0.0246576310831853 0.0879091042690431 -0.0361875733568666 0.1942332202992069 )
( 0.1906183261238126 0.0680984241356544 -0.0272459147224129 0.0868607110298359 -0.035958910704506 0.1850772142966723 )
( 0.1941061702118773 0.074932874930705 -0.026036460792142 0.0853377934539755 -0.03441489483162 0.18067757881809 )
( 0.1973511139679616 0.0787255569556715 -0.021810340308499 0.0826956380655467 -0.0319584259589987 0.1765529262447777 )
( 0.1990027615977792 0.0803412156077685 -0.0152910087281405 0.079625896553741 -0.0284377360754799 0.1723448321062454 )
( 0.1989895929052393 0.0801465558347206 -0.0072480521874966 0.0769992367568551 -0.024094871964121 0.1698548278511884 )
( 0.19896601738352 0.0781748239345846 0.0016668318521891 0.0745543518730856 -0.0187886817905844 0.1681516522445276 )
( 0.1981283704657622 0.0738839964948964 0.0109191372288301 0.0724448278619669 -0.0127540489163928 0.1676045525737682 )
( 0.1958166104831813 0.0678150307032076 0.0189976761780185 0.0712204404786996 -0.0069644114851338 0.168451694686343 )
( 0.1934375234152006 0.0611855221970166 0.0254839288311333 0.0714601446663006 -0.0010695549428045 0.170557816227588 )
( 0.1908108025394011 0.0536740496421495 0.0292607348327364 0.0734306104006051 0.0043148096170377 0.1733420850390807 )
( 0.1883362379213491 0.0464227325867685 0.030206418635806 0.0765217809936733 0.0086373362689959 0.1761639129764177 )
( 0.1873630554972913 0.0406708726943511 0.0294345110021749 0.0800380481625815 0.0122549389634598 0.1788962632322422 )
( 0.1864298111919184 0.0358448426687116 0.0267319859934306 0.0837650817610548 0.015124335915543 0.1809261628994206 )
( 0.1858380063129568 0.0318599217774557 0.0229794000260945 0.0872386875586359 0.0172860225910507 0.1823429402844579 )
( 0.1864826384420528 0.0286527091182837 0.0181405373940387 0.0905149390626949 0.0189822518169665 0.183202828779511 )
( 0.187703103450719 0.0261704939989654 0.012269433294085 0.0936414916446057 0.0204517795703907 0.1832312807296637 )
( 0.1767852930180214 0.037557716111706 -0.0184943400938343 0.0961906245354671 -0.0299293883454678 0.2129823284885516 )
( 0.1761067507631454 0.0457003276851727 -0.019657734800114 0.0977712236007106 -0.0274747220039334 0.2078778179611651 )
( 0.1770382920654088 0.0587933103566822 -0.0190217352609148 0.0964154553921286 -0.0272121190778929 0.1982102379712647 )
( 0.1801940826008204 0.0703298554308159 -0.0158025198501762 0.0953906331813208 -0.0273391908744732 0.1923463297130859 )
( 0.1821279246147566 0.075499912308895 -0.0097015675436483 0.0944939008552609 -0.0254975616218866 0.1910465627689028 )
( 0.1830068847160337 0.0767837945302827 -0.0018760463066009 0.0922420377059172 -0.0225000700246827 0.1898116053618316 )
( 0.1823899071899734 0.0753343343001786 0.0071429755886586 0.089453112090378 -0.0180976936601183 0.1888939635286684 )
( 0.1808050545195005 0.0717398219439634 0.0158838813235309 0.0870598236496504 -0.0123883984354808 0.1899778491224908 )
( 0.1790641214023738 0.0664315142121046 0.0231066991251834 0.0851964713290977 -0.0064202278643085 0.1911966168872668 )
( 0.1770768184529245 0.0603812698577441 0.0285598734690128 0.0842675195013762 -8.84397381936428e-05 0.1927091720185121 )
( 0.174376597245318 0.0531674021063248 0.0310750161594614 0.0843457762049472 0.0059578831422381 0.1942317826575599 )
( 0.1734798781781376 0.0462038180743766 0.0305370837965078 0.0857665375545534 0.0114619978576614 0.1957925846240759 )
( 0.1735480726336118 0.0402077491459095 0.0271640850917165 0.0882961729000215 0.0165581573530043 0.1968298320134614 )
( 0.1742781128643225 0.035364586780534 0.0221240533926645 0.0915992786905687 0.0210233475871812 0.1979447754459987 )
( 0.1758192185056218 0.0325996852813339 0.0163476563242117 0.0945868472263343 0.0244935466477601 0.1989010675500724 )
( 0.1776918013264933 0.0310910896955344 0.0102516989544471 0.097200812059803 0.026834491274019 0.1990759698327522 )
( 0.1803975240988249 0.03025198289528 0.0040006511063063 0.099484516140286 0.028444640298409 0.1988660586542645 )
( 0.183847992937629 0.0302985690071602 -0.0029640018579173 0.1013975697313493 0.0296137516256467 0.19878561369583 )
( 0.1878966856977298 0.0311725931434347 -0.0109007193316457 0.1029273643526593 0.0298469042165686 0.1984828351155028 )
( 0.1692681952474364 0.0416056160918504 -0.0166402610906067 0.1055588538415569 -0.0203709546156706 0.2110995629335564 )
( 0.1677959853580014 0.0504747517964658 -0.0144155603765074 0.1070564968425116 -0.0184905362845198 0.2055041248237924 )
( 0.1688368037549404 0.0627371872886206 -0.0100819049721391 0.1060936585612058 -0.0192570364040952 0.2000251917511284 )
( 0.1708562791095174 0.0715292802418886 -0.0029927579975356 0.1053267873965194 -0.0187042767542011 0.1997925073747577 )
( 0.1707417129516151 0.0735565950001912 0.0049381287442767 0.104167169647457 -0.0156533080780266 0.2013798074308578 )
( 0.1691866825515451 0.0725176169612308 0.0124255795152728 0.102241608599347 -0.0108300408649873 0.2033026208133328 )
( 0.1669605603606759 0.0685559908017138 0.0197111725830821 0.0995530390225702 -0.004604485147152 0.2051849738800634 )
( 0.1643301220455661 0.0629161826582767 0.0245518960311929 0.0977178316572363 0.0025792605975181 0.2069359889257377 )
( 0.1614989977323594 0.0569011885820932 0.0270918574434298 0.096947106694927 0.0099432977911776 0.2089163671431484 )
( 0.1592947738180998 0.0510155854030656 0.026780468537773 0.0970328402039287 0.0166754622506104 0.2103437320749271 )
( 0.1586589590512103 0.0456025703477842 0.0236921057427916 0.0983947179384535 0.0232415331240813 0.2115838186393591 )
( 0.1603983405723211 0.0412919192900303 0.0183638901372558 0.1009201575636697 0.0291597094235419 0.2126764871313022 )
( 0.1632846876550213 0.0387741480679069 0.0109429259315437 0.1037786551890666 0.0343273301969839 0.2135665444902759 )
( 0.1672339282230456 0.0381770749681596 0.0032442997555797 0.1067584014508036 0.0383206906233136 0.214892845107263 )
( 0.1715417376617301 0.0392125059268678 -0.004359442775966 0.1093649701014745 0.0408844228407076 0.2162315697423483 )
( 0.175789594070241 0.0412320911139763 -0.0118512254947086 0.1114891488085557 0.0421015205898008 0.2174998599314418 )
( 0.1803971934730056 0.043858455284153 -0.0192383550461737 0.1130440075223951 0.0424214978172275 0.218746746492206 )
( 0.1856150971532372 0.0472155336341979 -0.0268676029273452 0.1140083756834968 0.0418849342546292 0.2203802474508728 )
( 0.1918001956591813 0.0513835063419788 -0.0350964954695399 0.1143957942886189 0.03952090691051 0.2220192644693957 )
( 0.1609282419453965 0.0474356457545415 -0.0125852044786239 0.1158376060073519 -0.0116657037119796 0.2083525859332651 )
( 0.1586285551075629 0.0565202897896617 -0.0085267165607514 0.1170540327429179 -0.0105946339166771 0.2041512000911602 )
( 0.1595232164115759 0.0668598580316052 -0.002379126786078 0.1156343683293938 -0.0116923830865336 0.2031401020477225 )
( 0.1599567074150565 0.0718945031845692 0.0053700722408819 0.1145421801292882 -0.0097632966928032 0.2075354641051006 )
( 0.1579019385921301 0.0707511376098681 0.0122315651550914 0.11271163770797 -0.0045916314134303 0.2111147551858088 )
( 0.155314262957704 0.067532081582489 0.0176338196603462 0.1108256259614535 0.0025095792507169 0.2145011462777363 )
( 0.1513089291497863 0.0626173356840145 0.0212205362025555 0.108988074469349 0.0104943395616515 0.2171702044604003 )
( 0.1477944386900525 0.0570974363911555 0.0212657544657307 0.1087645378279339 0.0190047375941935 0.2188614030479858 )
( 0.1457768072496155 0.0522376431503208 0.0193737738400909 0.1099986802595649 0.0279320751506754 0.2214572378191937 )
( 0.1450011027550737 0.048406815747833 0.0155504648299711 0.1116622391180461 0.0359436348837277 0.2239118277128222 )
( 0.146840966397773 0.0466344180741322 0.0096858044237119 0.1141638290017603 0.0422941231782318 0.2258214090497189 )
( 0.1506870818359365 0.0465186167606962 0.0016832265542136 0.1172231833888977 0.0471381080643121 0.2278666331283325 )
( 0.1560294687691639 0.0479926532961081 -0.006957688187664 0.1204552067422587 0.0513416569455369 0.2304840129400802 )
( 0.1624798175201074 0.0514128553812642 -0.0148901108819928 0.1230413753348272 0.0533422564815678 0.232597710799575 )
( 0.1688498194054832 0.0555608218467142 -0.0223484918026718 0.1252228761352511 0.0536102115183632 0.2352127404216194 )
( 0.1750581494722011 0.060248301253947 -0.0291875292612485 0.1269407255147764 0.0528867613589654 0.2381766686828156 )
( 0.1811318499246783 0.0655411251222683 -0.035673537602076 0.1279298926604545 0.0509362126148302 0.2411677723944986 )
( 0.1877660600126585 0.0713563959371287 -0.0420511453290417 0.1282999818152648 0.0474751762025995 0.2437793431922107 )
( 0.1957385381770877 0.0778130404891434 -0.0488796739531126 0.1279961888053135 0.0419976739251505 0.2464991169300615 )
( 0.1512342679888076 0.0544191672309168 -0.0082291934018192 0.1258960584541279 -0.0042630939382582 0.2069428715737903 )
( 0.1488467082721118 0.0626813314768102 -0.0036177838092483 0.126121488028195 -0.0037271883542105 0.2057872510817444 )
( 0.1491607088803259 0.0693475774193702 0.0026685373835404 0.1235551959644357 -0.0038849379960984 0.2088486913972727 )
( 0.14708980379512 0.0706183442473792 0.0087928121856063 0.1223511587242011 2.174846238464843e-06 0.2149718590540156 )
( 0.1432574494942263 0.0677449293605459 0.0131691546960331 0.1208446349036312 0.0074625351245671 0.2190730252778131 )
( 0.1392002634741251 0.0630860248848708 0.0159438412225126 0.1198185806226719 0.0166569252728961 0.2228788529513536 )
( 0.1347115142526645 0.058213701907714 0.0158088378784942 0.1196571999958042 0.0263099899037142 0.2257081370992584 )
( 0.1318718599412046 0.0544422789027618 0.0131666197959888 0.1210583840902426 0.0357358584735226 0.228296229021007 )
( 0.1317386931515166 0.0525719214158821 0.009116960714598 0.1244983049065222 0.0451904845202906 0.2318728863214889 )
( 0.1339447372690853 0.0524073994573753 0.003684811032327 0.1278420465822576 0.0529597076359745 0.2353648670874019 )
( 0.1381949047528761 0.0540920150170815 -0.003164052507063 0.1313628269332212 0.0584408441000369 0.2384581529120532 )
( 0.1444091274106953 0.0576679426705954 -0.0111162340431161 0.1348447042314922 0.0617623502490943 0.2422652970367652 )
( 0.1519796454635865 0.0626325761014784 -0.0188494664375484 0.1375532673631423 0.0632198160297279 0.2463346582095185 )
( 0.1600655768971416 0.068702056743401 -0.0257731144794228 0.1396256751123542 0.0625356935059375 0.2495498624802988 )
( 0.168386252961735 0.0750577509087457 -0.0321445884717601 0.1414249503578437 0.0601267115394223 0.25303055384445 )
( 0.1761900891590404 0.0818506878605512 -0.0376269612602351 0.1428868121436016 0.0569882605158338 0.2565312298994834 )
( 0.1838509454144692 0.0888895014161797 -0.0426695967271793 0.1438933449080253 0.0525923952029882 0.2596431372937873 )
( 0.1923694441655825 0.0964365155962976 -0.0478010355766703 0.1442515424792848 0.0463924150907405 0.2626069558596653 )
( 0.2023366338996701 0.104620262574634 -0.0533190878608401 0.1438786308956277 0.038296189021893 0.265561315440468 )
( 0.1421313419004675 0.0612558708210679 -0.0048812792452523 0.1350536703198178 0.0013228741600525 0.2074648741826691 )
( 0.1397568621588729 0.0674564669910026 -0.0007412608083821 0.134228207587005 0.0018889653631602 0.2089751427889724 )
( 0.1385281507820982 0.0703436230035046 0.0047269323069594 0.1307616543532903 0.0036889087534583 0.2146745136992642 )
( 0.1343505169347678 0.0685083944913529 0.0090715725108721 0.129679903138544 0.0102061202318355 0.2208820096001903 )
( 0.128456655627575 0.0644993596185555 0.0109847324859282 0.1292742470308036 0.0200374723427321 0.2246877131666488 )
( 0.1229338303643555 0.060339855114658 0.010450505196981 0.1295765988696972 0.0308415063509538 0.2282229440562385 )
( 0.1200962878340402 0.0572471468238473 0.0086020573139722 0.1314700295586887 0.0419043784436214 0.2320340858340262 )
( 0.1193081822527241 0.055640992374725 0.0051854713097207 0.1351004298027818 0.0515344287377991 0.2363132185683848 )
( 0.1204212846024486 0.0565604008073512 0.0003905432588884 0.1402903498252729 0.0599018067582489 0.2410059876502851 )
( 0.1254536211518481 0.0597923931138948 -0.0050783303034994 0.1447833625401028 0.0663442423555587 0.2454653173661967 )
( 0.1324134029531809 0.0645545539663968 -0.0115522111950324 0.1488383403724243 0.0703156407785448 0.2501960180242714 )
( 0.1411481074363959 0.0709182134881482 -0.0182334048569882 0.1523410042765423 0.0716941977189133 0.2553403213212764 )
( 0.1511582837383786 0.0785571361225443 -0.0243998309652454 0.1546943338366635 0.0697994914111863 0.2596142172931101 )
( 0.1611081604242614 0.0867827804582005 -0.0298766712032491 0.1567746050969544 0.0659947612591991 0.2632268918987712 )
( 0.1708081663853635 0.0948820608596897 -0.0348980090949822 0.1585223500317989 0.0611733442690004 0.2667338249562463 )
( 0.1799231787464926 0.103410070310465 -0.0391501547460207 0.1600924040495535 0.0554054458444982 0.2701928208742518 )
( 0.1894469753595793 0.1120869098701044 -0.0430965077271125 0.1614106067625213 0.0486203297038157 0.2732250324311862 )
( 0.2000718392100862 0.1212116082140336 -0.0473351188082621 0.1621642644992086 0.0402646659619359 0.2760784530116424 )
( 0.2120909949961583 0.1308855185776085 -0.0519501694074886 0.1622263231845658 0.0302094289122433 0.278442156488989 )
( 0.1332041018686084 0.066955138900232 -0.002953896591679 0.1429298037807437 0.0057927403689452 0.2084564671423803 )
( 0.1294938181912347 0.0705031977390522 -8.191679031202151e-05 0.1415324504477429 0.0070682969823826 0.2111721506042652 )
( 0.12632891592036 0.0698265430987752 0.0037956743819328 0.1377826362933435 0.0112254807475179 0.2175432534481872 )
( 0.1209286308425983 0.0662508087076401 0.0064189599596315 0.1373298463065836 0.0206209276525871 0.2232343921542367 )
( 0.1146321837943817 0.0623560630952777 0.0068470175432271 0.1384217663233055 0.0327423334180554 0.2272678278382426 )
( 0.1094814118450141 0.059318532910624 0.0049460668968688 0.1402901513302006 0.044302612993781 0.2316347563065438 )
( 0.1079170988466656 0.0586033921197099 0.0025117942489872 0.1439208406055405 0.0550941636095125 0.2364630668547979 )
( 0.1091583515475238 0.0596225701133339 -0.0006923529919248 0.1497004633897343 0.0643792950007601 0.242197310964669 )
( 0.1122923199631775 0.0625448100824344 -0.0050021186698653 0.1558560608079771 0.0714416929661006 0.2485451427941097 )
( 0.1197327531284138 0.0686381765485904 -0.0095912386921972 0.1615128491980386 0.0762182476812638 0.2542515480986806 )
( 0.1296297047643284 0.0762761658903201 -0.0150446736504523 0.1657610910051537 0.0774244055568583 0.2596747660712823 )
( 0.1403026031351314 0.0845883648647089 -0.0204003104744766 0.1690325860063102 0.0759442467381501 0.2655782920662423 )
( 0.1523871751103916 0.0945273524306278 -0.0251671146210202 0.1719582288587813 0.0713158310365986 0.269563530407502 )
( 0.1643660029682903 0.1047425508905583 -0.0295496651527929 0.1745446299932662 0.064893379357261 0.2733290626939511 )
( 0.1754010077013055 0.1143101535588796 -0.0333769357106356 0.1768188813792043 0.0580569593727502 0.2770455967052678 )
( 0.1861077459932117 0.1243483305639944 -0.0368043016547159 0.1790517314106167 0.0500230085158783 0.2802697150871932 )
( 0.1973855156548736 0.1346218793679476 -0.0401365908075525 0.1812250088865264 0.0411708192268984 0.2826255705443999 )
( 0.2102398004705717 0.1455083768585503 -0.0439153834720154 0.1829060994062351 0.0311175929591124 0.2842420229610869 )
( 0.2248240532804599 0.1570654623390455 -0.048326651727585 0.1839005301500848 0.0196695970528581 0.2852350034859071 )
( 0.1253731753915741 0.0712586787009838 -0.0025142527382643 0.1499351003959546 0.0104019707358847 0.2095075116814098 )
( 0.1201941278083425 0.0712988731805721 -0.0006148714480471 0.1470792191419959 0.0126288652074647 0.2122037153831933 )
( 0.1141759221738002 0.0678992454263639 0.0014542674001311 0.1439449644073545 0.0194032715488252 0.2172459894416095 )
( 0.1075273519495409 0.0640714794122802 0.0025884288010455 0.14507976903814 0.0311494831594235 0.2229205082624568 )
( 0.1020015878818079 0.061132435988319 0.0024243821611473 0.1475672273359074 0.0440505040178824 0.228587274969815 )
( 0.0983665390431562 0.0595739973732928 0.0009242572530327 0.1517168860564218 0.0558267571670772 0.2341095707771353 )
( 0.097773196749368 0.0608175846089919 -0.0015858191831332 0.1576008029224989 0.065942324222174 0.2394607670907245 )
( 0.100820186106199 0.0645457849452127 -0.0042574615800578 0.1647075105465592 0.0747237304055839 0.2468482339069092 )
( 0.1068010269775345 0.0698624868765272 -0.0072736565820478 0.171676203297831 0.0805860626505741 0.2547375855984019 )
( 0.1163820246975979 0.0780250964485411 -0.010785158836126 0.1777336930846987 0.0827041623458449 0.2613437394753593 )
( 0.1289703124638375 0.0878892607410827 -0.0149716687014979 0.1822773995425871 0.0809867475642713 0.2672001883888288 )
( 0.1420409880068802 0.0981857878071222 -0.0191873845273312 0.1859059173977411 0.0763032378482415 0.2727736004806789 )
( 0.1553263427538448 0.1097986127992819 -0.0230271957574552 0.1897306320613253 0.0694582671286803 0.2772254579695983 )
( 0.1685965921204349 0.1214508245184229 -0.0267707416416671 0.1931435344014127 0.0610787307122436 0.2811663166307718 )
( 0.1811133311846033 0.1327970165353039 -0.0298361593658717 0.1964577981502127 0.0521280814878256 0.2840693212250754 )
( 0.193494522060862 0.1445131210759868 -0.0327913481036176 0.2001021310373585 0.0423637088317999 0.2862893662385917 )
( 0.2067501917970447 0.1567688382282853 -0.0361191772574632 0.2039436958420716 0.0319016359165487 0.2874595756207438 )
( 0.2221039150183549 0.1698862288452201 -0.0400657696875805 0.2071191009603594 0.0205653866911805 0.287347921693197 )
( 0.2398301715870644 0.1837253695450331 -0.0448856696135234 0.2091749760066552 0.0082651510061424 0.2865040039270953 )
( 0.1187650645737953 0.0730870666598202 -0.0025697166705603 0.1543962991683369 0.0141849020427428 0.2100411929317588 )
( 0.111611538494167 0.0704511528735799 -0.0020163314673009 0.151038255141121 0.0179608333784633 0.2107476337600855 )
( 0.1031695479912153 0.065733312197386 -0.0012082130957459 0.1499646488364875 0.0279307049770441 0.2152069027246942 )
( 0.095803402433766 0.0618932580823111 -0.0007364754323622 0.1528505538441494 0.0408167080436789 0.2215649152575194 )
( 0.09054450007419 0.0597778150003849 -0.0008751320189634 0.1571316991703769 0.0537181398353849 0.2285175974403252 )
( 0.0887403868658295 0.0604033897926605 -0.0019210695879925 0.1639284557385426 0.0654866146972474 0.235338186723949 )
( 0.0904640207507911 0.0638169316291171 -0.0035009708715038 0.1720733101163252 0.0751968278792221 0.2425624431399933 )
( 0.0954627751217242 0.0692291010776303 -0.0051291540584193 0.1797026387790415 0.082674090612563 0.251750425187535 )
( 0.1040395031368186 0.0765367219158853 -0.0071799670815797 0.1871661665713694 0.0863791296758319 0.2600492272110327 )
( 0.1152015014341132 0.0863949847371243 -0.0096259961147253 0.1935704131187468 0.085780739968749 0.2671201184218133 )
( 0.1289194049715394 0.0981013608077155 -0.0126299506137719 0.1986893567690815 0.0815272710222679 0.2730642923482904 )
( 0.1443493614336291 0.1109214544172899 -0.0161117697428394 0.2033567148554683 0.0742507890100429 0.2780509422720947 )
( 0.1588521949647926 0.1240040740259114 -0.0194223863125985 0.2080276080088895 0.0652886532284862 0.2824495942013987 )
( 0.1732574776735678 0.1370491936225592 -0.0228515619247173 0.2127036716168319 0.0551885068652256 0.2856127393149759 )
( 0.1876614954661954 0.1507211244955171 -0.0259871693786706 0.2180077681701176 0.0444121205467414 0.2874801475678347 )
( 0.2019173217645796 0.1646900019798294 -0.0290237794198047 0.2239387736796781 0.0331150354415694 0.2881929906319597 )
( 0.2176584771850843 0.1794956955480705 -0.0326217477109314 0.2298273907815789 0.0214393772360969 0.2878949646752957 )
( 0.2357480118813744 0.1951091797702326 -0.0371647368176044 0.2346809194831611 0.0095002442607314 0.2863920624349325 )
( 0.2571430890972567 0.2118961481240747 -0.0428783326287538 0.2382062154724339 -0.0031451233826514 0.2839783096500115 )
( 0.1106261421206129 0.0722810029420962 -0.0035703169303486 0.1573931144402988 0.0176498542672893 0.2075207380791958 )
( 0.1016934580459712 0.0679321027820677 -0.004292921084646 0.1547798444356877 0.0234542618258254 0.2062540678774915 )
( 0.0922350149092717 0.0627905671797279 -0.0035062721616234 0.1563838099779428 0.0359585788233652 0.2123785840808805 )
( 0.08508104381786 0.0596395548178994 -0.0029192973026625 0.160929214727871 0.0493537400862881 0.2200813186832254 )
( 0.0812025334922966 0.0592006316233436 -0.0026397810000678 0.1674845748145751 0.0623810959247072 0.2278917613234466 )
( 0.0814076372449024 0.0618076770889835 -0.0030128510556411 0.176063707650573 0.0736853294404465 0.2365678697357965 )
( 0.0854611687116903 0.066722973958236 -0.0037483858467484 0.1849631201062632 0.0820794413518307 0.2463482740440464 )
( 0.0925602708695034 0.0735141975771894 -0.004461105881586 0.1939967630215037 0.0877924499132878 0.2563732896992838 )
( 0.1028977374901801 0.0827038576414381 -0.0054825028783954 0.202128966063418 0.0891895920209132 0.2641165161226029 )
( 0.1153881091240228 0.0942238646378169 -0.0068542851023916 0.2090494967767427 0.0863296762586806 0.2708479936840594 )
( 0.1300700903925554 0.1075003419725825 -0.0090738846240618 0.215409208779653 0.079915435389578 0.2767458762755619 )
( 0.1463697205447045 0.1222404236819542 -0.0121441003861505 0.2217139891175806 0.0706001234329595 0.2816768916200498 )
( 0.1624557198411718 0.1373478328569705 -0.0154203969531351 0.22777660560176 0.0595101470907945 0.285036593878944 )
( 0.1788054955415297 0.1528811127057232 -0.0191857931756744 0.2343373478077576 0.0475010519416757 0.2870140370710108 )
( 0.1950004964072213 0.1691681136736193 -0.0228136352255203 0.2425608508491306 0.0353167204113575 0.2878862665933351 )
( 0.2111010691982618 0.1855768383737785 -0.0263168924499232 0.2513047001685677 0.0231968926577544 0.287323813741329 )
( 0.2290054111102029 0.2029334736169508 -0.0305486509554266 0.2594252922344484 0.0108829889235969 0.2857206662566647 )
( 0.2507100421293889 0.2217949794853111 -0.0359520339151111 0.2662069446882205 -0.0014978891986384 0.2831785261939459 )
( 0.2771693943766318 0.2424620655574308 -0.0427288156844779 0.271513146393872 -0.0141663682319983 0.2796810685922338 )
( 0.1022874116240896 0.0697353369178308 -0.0053208154952103 0.1611810622596128 0.0214978991913095 0.2025416743019983 )
( 0.0914587755344956 0.0638208127543923 -0.00638086821059 0.1591726763548104 0.0293207942891394 0.2015467429610798 )
( 0.0818678070032693 0.0594406565680047 -0.0051105427540455 0.1624649624304242 0.0432555803692262 0.2095178604068031 )
( 0.0762580059701872 0.0580013091369483 -0.0041513480592938 0.1691285821892616 0.0566507143822437 0.2184299044036096 )
( 0.0744410483786631 0.0591003667398212 -0.0034381492156051 0.1773717793508731 0.0692147192050292 0.228226314472132 )
( 0.0767868540444091 0.0633289929032689 -0.0028481429605409 0.1872687902224566 0.0798996140622355 0.2383952953392447 )
( 0.0825142336144803 0.0695125150115472 -0.0025821898519468 0.1975397380071876 0.087042394617607 0.2492300251423912 )
( 0.0910713545415713 0.0776281043627301 -0.0024937653376701 0.2081460656857449 0.0908012994648295 0.2594333486402246 )
( 0.1027101457390824 0.0887757154517854 -0.0024360078364907 0.2172750861323081 0.0903648563808625 0.2674804654978347 )
( 0.1164334300709178 0.1019734758724359 -0.0032163618287152 0.2246661845647767 0.0853319096850044 0.2738590885544013 )
( 0.1322486881491769 0.1169040336332381 -0.0054086970051226 0.2325992520150671 0.0769640326358405 0.2791719568897594 )
( 0.1490815044215659 0.1331629729676956 -0.0085092154867376 0.2406156768166454 0.0657992395038309 0.2836485200538685 )
( 0.1664188955602162 0.1505623384496686 -0.0121593680725586 0.2492250735624933 0.0525771802386939 0.2859886449736128 )
( 0.1844998809235616 0.1691459459379339 -0.0163774700636417 0.2591772827843469 0.0387558528063868 0.2869012382187957 )
( 0.2016921755533688 0.1876367061742041 -0.0202056685521003 0.2705269791153082 0.0260065308351387 0.2865948050426127 )
( 0.219630123957098 0.2065191495461347 -0.0243796361032413 0.2818778824095777 0.0137604936599974 0.2849155221284604 )
( 0.2408243242373811 0.2274735371405943 -0.0297523541258311 0.2929526049400143 0.0009018276341996 0.282574558227183 )