/*--------------------------------*- C++ -*----------------------------------*\
| =========                 |                                                 |
| \\      /  F ield         | OpenFOAM: The Open Source CFD Toolbox           |
|  \\    /   O peration     | Version:  2112                                  |
|   \\  /    A nd           | Website:  www.openfoam.com                      |
|    \\/     M anipulation  |                                                 |
\*---------------------------------------------------------------------------*/
FoamFile
{
    version     2.0;
    format      ascii;
    arch        "LSB;label=32;scalar=64";
    class       volVectorField;
    location    "0.0064";
    object      U_LES;
}
// * * * * * * * * * * * * * * * * * * * * * * * * * * * * * * * * * * * * * // 
 
dimensions      [0 1 -1 0 0 0 0];
 
internalField   nonuniform List<vector> 
13597
(
( 17.665670480559623 1.9015353261233852 0.103013613266143 )
( 17.67312973081656 1.9487814423428944 0.0991690325711558 )
( 17.699380754451937 2.0446444458300115 0.0913964515364593 )
( 17.737790095362854 2.168694010504669 0.0803980914908437 )
( 17.77111829744032 2.272760961976344 0.0717037921162767 )
( 17.79606432306363 2.356006884173253 0.0664105077033221 )
( 17.822587555522116 2.437228877420364 0.0610925304313341 )
( 17.853164493510466 2.5222613194848096 0.0567189218963411 )
( 17.885967943855324 2.6060277666611684 0.0537024379474311 )
( 17.91836525377787 2.6885057530905323 0.0505701897273112 )
( 17.95320465443841 2.7785470653141835 0.0488094403739859 )
( 17.992285982672843 2.8680472246176167 0.0483049631628816 )
( 18.033403046234053 2.9547570885358048 0.0487251760655001 )
( 18.07461801978737 3.0454596939819325 0.0507701598391304 )
( 18.11447479993463 3.138556064962907 0.0539455960201496 )
( 18.15624737099036 3.2298211301383803 0.058289726378514 )
( 18.20183236550544 3.316540653604916 0.063620527875527 )
( 18.248233643139457 3.4042458695168705 0.0678780967630579 )
( 18.294957192574817 3.496282829139066 0.0716154885546249 )
( 17.553407784085522 1.943480551481385 0.0944596760658516 )
( 17.546092153133042 2.0041419840600208 0.0876942313344701 )
( 17.552508516943604 2.13005042388169 0.0767643768691639 )
( 17.562157132191803 2.273923541658287 0.0649787963426505 )
( 17.565478570991054 2.382591712509215 0.0576646838460039 )
( 17.565011710586926 2.481018930649713 0.0539486824369177 )
( 17.56697934151684 2.5787871737350625 0.0515807126942277 )
( 17.569042486207596 2.679240476444807 0.0508278712657669 )
( 17.574630067737193 2.7802118998995167 0.0520595614149961 )
( 17.578737503695947 2.879150612189793 0.0541624116887694 )
( 17.58176033350171 2.987565495832527 0.0579810651793853 )
( 17.58392489861458 3.1026141871919624 0.0635933205399286 )
( 17.58472840608815 3.2173971501150658 0.0695292340585856 )
( 17.588980365453615 3.335139409218762 0.0751227497302047 )
( 17.595289867272196 3.4510946207081923 0.0812168856922718 )
( 17.602554300123654 3.5603778166501856 0.0860407621267236 )
( 17.610665482179215 3.6611000859817735 0.0896431641590787 )
( 17.619956179010376 3.7654379902191217 0.0918829010857368 )
( 17.63448302511447 3.869830546318202 0.0923153759727653 )
( 17.432807449232428 1.9758343762821329 0.0774909280509148 )
( 17.40382662580525 2.04706617405865 0.0694528484790558 )
( 17.382238479045 2.1915729660685788 0.0598932977135161 )
( 17.35716459718103 2.346397586921591 0.0510218651401903 )
( 17.328505429998064 2.4597921539049183 0.0467800469231206 )
( 17.3036571214723 2.5691103013830645 0.0471987658941694 )
( 17.280114107551373 2.68020617722758 0.0503224752853235 )
( 17.249716965028608 2.790708823154368 0.0551151132013532 )
( 17.223439731492878 2.905198903729287 0.0622632518943123 )
( 17.19911445195156 3.0275655195376823 0.0708485129887787 )
( 17.171179988180175 3.1549769652481725 0.0793331669544351 )
( 17.144158653836612 3.291893044036654 0.0874998075295143 )
( 17.118902466663062 3.4336137493039254 0.0941069457885027 )
( 17.096948349681583 3.5697631424946983 0.0983619756291796 )
( 17.079841859088432 3.695176090213624 0.1010063611181374 )
( 17.065700804622853 3.807666613118636 0.1009893612646295 )
( 17.050301342321184 3.909611443750104 0.0991498546365346 )
( 17.03607801795342 4.013010890721151 0.0958617240389701 )
( 17.030748805288994 4.120474817437221 0.0906472007735578 )
( 17.299680362955687 1.996392161808913 0.0613571777529123 )
( 17.245595376249394 2.0770045944961013 0.0535924822479269 )
( 17.196298386602283 2.229520434867828 0.0481471410372277 )
( 17.14025421384208 2.38978124309531 0.0455712150650783 )
( 17.08020040966363 2.510434396306531 0.0475785295994309 )
( 17.026185259037188 2.6258508415945645 0.0544165730380918 )
( 16.970473394673636 2.747699640126577 0.0640182995816903 )
( 16.910585696305933 2.870596048872494 0.0750308987667374 )
( 16.858665606862488 2.9982421289924432 0.0865086652476916 )
( 16.810492386383814 3.13592641847625 0.0967348182354245 )
( 16.757467731888784 3.28183270888032 0.1040922451555597 )
( 16.712882373240074 3.434463436381091 0.1085319893709078 )
( 16.674271636745953 3.587904827425023 0.1088525642797431 )
( 16.63474949279634 3.7355766992270287 0.1068145450592559 )
( 16.597574546724864 3.8639113042417614 0.1025204965821343 )
( 16.56355680207098 3.975005084248906 0.096090150137593 )
( 16.531033237938612 4.07669468513419 0.0887727016436511 )
( 16.496916497684158 4.180160574747863 0.0795715910529629 )
( 16.467238800841415 4.294991923627148 0.0677724309487562 )
( 17.15940847631229 2.006556728290992 0.0484338648708581 )
( 17.086570890460475 2.0959165389561245 0.0432149542444123 )
( 17.009341949812434 2.2567940673509552 0.0439838635784342 )
( 16.92211113973752 2.417488552416785 0.0503515198063137 )
( 16.835464817716424 2.540941054443909 0.0596732106932864 )
( 16.754581407453575 2.6623686594620404 0.0716105135291875 )
( 16.670592297124713 2.792535471746344 0.085718501819262 )
( 16.58752980227054 2.925509190142539 0.0984444602760265 )
( 16.512994411510594 3.0610374580844257 0.1084434443198966 )
( 16.44069131239314 3.2073906080716994 0.1140426722484531 )
( 16.36778616904107 3.3690171007220484 0.115114341426126 )
( 16.301865516324156 3.535170223510883 0.1120595404080008 )
( 16.24006383718631 3.6971762046899728 0.1046726583439354 )
( 16.1778854562503 3.850126324248545 0.0953643284017216 )
( 16.116292557652244 3.9771867801735215 0.0846046442822024 )
( 16.056363674221682 4.091790322571549 0.0728429170463577 )
( 15.999673859844073 4.201550884672744 0.0605278441190386 )
( 15.944123418482652 4.311613599529677 0.0469837270797467 )
( 15.88953082593985 4.4350332019413 0.0311277320358064 )
( 17.019294535203873 2.0061803309832733 0.0389029880967757 )
( 16.925429230470506 2.103420103117589 0.0389584833714911 )
( 16.81811111960464 2.274307605209566 0.0471333297376362 )
( 16.70504026481659 2.4346396884432235 0.0608769546210289 )
( 16.598196077438793 2.5597681084454407 0.0758238708749568 )
( 16.497787323277603 2.686862505077395 0.0908381133269562 )
( 16.39564248442865 2.8194471343385303 0.1043618327063825 )
( 16.291860784890595 2.9569310484908384 0.1135415071162639 )
( 16.189342437027936 3.100519728518563 0.1183664839665127 )
( 16.089744089649134 3.2609076727806907 0.118140982118761 )
( 15.997236085159376 3.4313471378954103 0.1123707146970853 )
( 15.904642842950812 3.6031308423405606 0.100245605135065 )
( 15.816904731676855 3.772035839864164 0.0865041008429097 )
( 15.733528062244574 3.926450342290426 0.072507745882311 )
( 15.647723820251832 4.056203589181911 0.0574219553972316 )
( 15.568133177105633 4.171125213381594 0.0429509012631382 )
( 15.490205254114109 4.282386241327902 0.0285847954437834 )
( 15.412498965215365 4.395120288380198 0.0137726949850632 )
( 15.336288955667674 4.522419566669828 -0.0025677787865975 )
( 16.87184599049186 1.9986003629776907 0.0342369902670919 )
( 16.757606683922756 2.104374270409588 0.0408372371373708 )
( 16.627747149051874 2.280318768203299 0.0564223794441448 )
( 16.494764501943 2.4380380560327968 0.0739791595101983 )
( 16.371010266626794 2.5641110587553464 0.0904900862482656 )
( 16.248410132326562 2.6930858550044268 0.1053297674713835 )
( 16.12625186308606 2.8298191916563185 0.1148180319929634 )
( 16.003834772640925 2.972886612746028 0.1189236653900514 )
( 15.878250583724698 3.12205165718429 0.1178554059377642 )
( 15.761320436630363 3.289216101365494 0.1114379318856753 )
( 15.646159335347038 3.466306796728057 0.0999756052850082 )
( 15.526680224569011 3.645119312498452 0.0827035166835323 )
( 15.41590059409036 3.814217818897375 0.0650009078195703 )
( 15.309897825868422 3.966106307518735 0.048404327645216 )
( 15.202490890010852 4.100409061052235 0.0315859239625309 )
( 15.101659684506696 4.213870514691481 0.0166940426381789 )
( 15.004383906777765 4.3234895046953286 0.0027771508351003 )
( 14.905703495243523 4.4414054077560445 -0.0116767795753903 )
( 14.809140216860674 4.572559595577921 -0.0268612165040799 )
( 16.72671328260674 1.9857126525091824 0.0335893765922859 )
( 16.594968309272367 2.0952277359346274 0.04559166408555 )
( 16.44650618215031 2.2718791828161256 0.0669274637267627 )
( 16.295903074510438 2.427729262666632 0.08696840620488 )
( 16.152942191803007 2.5557991384710665 0.1026023863729437 )
( 16.011113735159213 2.688608434891873 0.1131170038772532 )
( 15.869723387860487 2.830776917441768 0.1180396907254189 )
( 15.730018912412632 2.9748358460845843 0.1171989668437412 )
( 15.583542957877762 3.1264426863114183 0.1105531475805983 )
( 15.44620487457001 3.300628201466022 0.0988073291387988 )
( 15.30609250345997 3.483220612027033 0.0833690649140475 )
( 15.16565198039996 3.666665918622853 0.064537646697144 )
( 15.033617973491909 3.8369508924225695 0.0452072951912457 )
( 14.902020925362196 3.983446684213215 0.0271896726059598 )
( 14.779183763296402 4.111214444311004 0.0104981455406857 )
( 14.659063507242273 4.2255705333557865 -0.0039674175380385 )
( 14.541929283236724 4.339745763754672 -0.0169696508230198 )
( 14.425684472887689 4.4644058674625615 -0.0299266653716763 )
( 14.31175075292196 4.601266575654629 -0.0428292531909476 )
( 16.585026311156316 1.963011822895536 0.0355296649616287 )
( 16.434914998594465 2.072462418884135 0.0511620617608748 )
( 16.268759424680493 2.249970540748861 0.0754141706052835 )
( 16.105497282140906 2.40482013913481 0.0962716876290893 )
( 15.945227510417348 2.537923631316525 0.1106630032823982 )
( 15.789315390709838 2.6713598500802864 0.1160411996041729 )
( 15.633378044261812 2.811870572259105 0.1160613823783907 )
( 15.477320206431674 2.9625281451115484 0.1114479829050535 )
( 15.31416926228716 3.1205877705492684 0.1005994031520154 )
( 15.14677959581108 3.2957590160281907 0.085202860891915 )
( 14.983407447289112 3.4815307734411367 0.0663707008464567 )
( 14.826263212601887 3.664640781506183 0.0470818516932147 )
( 14.669785861534884 3.835682622381591 0.0276649045383495 )
( 14.518098522313837 3.982031025278155 0.0096143939856194 )
( 14.381087812241743 4.105901150476325 -0.005681663365241 )
( 14.243146494487268 4.223534290294372 -0.0192966211783111 )
( 14.106509021249474 4.3410441469773255 -0.0306981842170657 )
( 13.972364497626486 4.469002433121848 -0.0411690458791599 )
( 13.838899242405796 4.611820578597058 -0.0512117185717299 )
( 16.443571714844335 1.9387330718549185 0.0398051681386263 )
( 16.278711785582825 2.0536163205120026 0.0586967318411529 )
( 16.098858408278772 2.229539296227612 0.0837090135004331 )
( 15.924271119182084 2.377665030417397 0.102614718729673 )
( 15.75305153041223 2.513191523255696 0.1128567537724598 )
( 15.583825011446404 2.6435965632269767 0.1151272845824744 )
( 15.408660728000728 2.7792328578383807 0.1113322602106887 )
( 15.22929552867136 2.932503426756496 0.1030986560567618 )
( 15.05085476483402 3.0928266514665044 0.0898899248474585 )
( 14.86504153771657 3.2691381670463504 0.0718083891424818 )
( 14.683166788771947 3.461248157449824 0.0511206412263611 )
( 14.5079819811991 3.6484279230177847 0.0313424690088525 )
( 14.332779196104449 3.816332785856252 0.0127622715536879 )
( 14.16729929347506 3.9631345133791727 -0.0040207388725637 )
( 14.010795188933267 4.088730322700044 -0.0172311520899965 )
( 13.852664479607084 4.206226145874652 -0.0284009330253842 )
( 13.694040539064492 4.325108157937554 -0.0377958165762731 )
( 13.54027480121796 4.455514301370717 -0.0465407817044958 )
( 13.389580466515008 4.605192373762013 -0.0552459123125452 )
( 16.312041937910124 1.9139388464671945 0.0444102113549516 )
( 16.139552855799185 2.032961573218952 0.0653701423635523 )
( 15.942120417114214 2.2054099370899105 0.0906648796287693 )
( 15.757632895474346 2.3450401435150674 0.1058150950939211 )
( 15.574410980312706 2.47680559930793 0.1117038312871488 )
( 15.38818785531512 2.6065812004610835 0.1112870221872529 )
( 15.19668245299601 2.738239205276635 0.1051157970774975 )
( 15.00129542421179 2.8854986630297565 0.094553914826286 )
( 14.804729538140862 3.0507561679592974 0.0788418405472754 )
( 14.60542993237116 3.230802800604033 0.0588561823941249 )
( 14.405690366821249 3.423936545391838 0.0380711546847938 )
( 14.20749148472746 3.618288509177828 0.018418857980561 )
( 14.020164032104484 3.7844770439585567 0.0015686737035017 )
( 13.840815305463956 3.931310446993717 -0.0129855235181181 )
( 13.660903569619004 4.06020787398454 -0.0246468866948354 )
( 13.479598001090274 4.177531047491876 -0.0341308054560638 )
( 13.301531330397928 4.2991425302903465 -0.042660899503516 )
( 13.132923450533626 4.43439432413814 -0.0508433429797202 )
( 12.965629546756825 4.592596373429176 -0.0584995141291274 )
( 16.185505761525683 1.8831104189303385 0.0488182277375331 )
( 16.003863934312175 2.003839253699701 0.0703992629773339 )
( 15.793294771848837 2.174614859997124 0.0941742572246959 )
( 15.599609897192783 2.305937349327813 0.1057247040065992 )
( 15.404092768614897 2.430281350201138 0.1093241408398934 )
( 15.2020368310288 2.559435987769758 0.1062435860517286 )
( 15.001236071172446 2.695255011813259 0.0980380844745062 )
( 14.792064409277137 2.84365413168252 0.0855828427125932 )
( 14.578811329901525 3.0103369305730787 0.0674933665841336 )
( 14.363121652789086 3.1897421515029825 0.0472792342647393 )
( 14.14581880731872 3.38046414324828 0.0272473479475416 )
( 13.928567294668747 3.5716480749479635 0.0090706297594554 )
( 13.721865535210764 3.742075860762736 -0.0063198182647389 )
( 13.52263928574934 3.896111925434818 -0.019864411217813 )
( 13.320935360562078 4.026461327722881 -0.0307238244674885 )
( 13.123495434943871 4.141974076886265 -0.039695764337906 )
( 12.93347076202545 4.266263332621238 -0.0475750097885731 )
( 12.750653971465528 4.412413300389071 -0.0540916836535305 )
( 12.56757317320878 4.5818147696035085 -0.0586200473638547 )
( 16.061949625245276 1.843779211235271 0.0516007580402809 )
( 15.871781469061704 1.9653104144209796 0.0735639924334094 )
( 15.657377612657069 2.1339181945318315 0.0952613137786124 )
( 15.453296642921185 2.263802245196645 0.1034351963020404 )
( 15.248004413805845 2.3876203770769675 0.1050785475279159 )
( 15.035136733563078 2.515926574474898 0.1007196011144959 )
( 14.820905623411033 2.6517374264412337 0.0906627069013534 )
( 14.594607887744049 2.7976920084754724 0.0759524558884579 )
( 14.364997876121386 2.9601755847378723 0.0569683886871125 )
( 14.136310952224967 3.14273565315153 0.0372058986632548 )
( 13.90049078393005 3.3398350689059284 0.0184498593453827 )
( 13.666432167550546 3.5279860911643883 0.0013706774072938 )
( 13.436800376596311 3.69947285417374 -0.0134420221372697 )
( 13.211960053446653 3.854947102344296 -0.0263320566171631 )
( 12.997233868266786 3.9808938384323818 -0.0362621160360707 )
( 12.79280280184506 4.099057867969655 -0.0436476303485688 )
( 12.590107903308033 4.231613463260423 -0.0495773887677647 )
( 12.388455842271854 4.386830976869594 -0.0533231937308432 )
( 12.182081275028835 4.570866870639526 -0.0539329915494318 )
( 15.947535152400576 1.7966912820334895 0.0537050149533442 )
( 15.755404313871754 1.9185391165854917 0.0749502236657807 )
( 15.53256059631581 2.0857264352813725 0.0949806090552114 )
( 15.319143060069797 2.215365302727991 0.1004256924805891 )
( 15.102302765577752 2.339262087544251 0.1007680276708897 )
( 14.881967415865743 2.4631105491462715 0.0953798559913546 )
( 14.655025658178449 2.5957549604899954 0.0836236672614098 )
( 14.419841532860978 2.7403599525715285 0.0673205892886519 )
( 14.173549448147812 2.900688703721204 0.0483105526102893 )
( 13.925123051398346 3.0855665080775774 0.0288715319284992 )
( 13.67021923750728 3.286575231787181 0.0104483624733279 )
( 13.41439144905886 3.4812428555355326 -0.0056592425241016 )
( 13.166875175011562 3.656615348980897 -0.0195608308415428 )
( 12.928081257955457 3.8048909203744414 -0.0312191343323029 )
( 12.701024472524292 3.929079374967214 -0.0395356492849602 )
( 12.48038387895871 4.057316835082966 -0.0449652588028298 )
( 12.261430263187274 4.204402859564566 -0.0485666356688967 )
( 12.034971087268309 4.364217942242134 -0.0493024163195378 )
( 11.796061886820423 4.5553126042735865 -0.0474747208294167 )
( 15.845357649405502 1.7487420816515296 0.0558548821661388 )
( 15.646957447023448 1.8719761546199545 0.0761247852080483 )
( 15.406169847195176 2.0399924252518504 0.0938696636864052 )
( 15.18453513961656 2.162309252216161 0.0977106816406063 )
( 14.962220405723922 2.281587340877149 0.0972393087625766 )
( 14.73606421978037 2.402814570111424 0.090089790572474 )
( 14.497299568017135 2.532338197400137 0.0763182227964062 )
( 14.248254625696278 2.6789842897104044 0.0591149911103177 )
( 13.990331024203153 2.838708656842716 0.0413415884306902 )
( 13.724728507079384 3.0207450954171424 0.0229710113969488 )
( 13.448129938784012 3.224873033786709 0.0042164762219364 )
( 13.169939105867064 3.4225565929548964 -0.011578785439689 )
( 12.904298712349265 3.602348905719293 -0.0244036020678069 )
( 12.656690695268546 3.749248812870064 -0.0344502796551089 )
( 12.419391225004931 3.8761185901946136 -0.0407266709400608 )
( 12.181508120530005 4.012525511833609 -0.0443040904253188 )
( 11.936400630438817 4.168045116707306 -0.0455204761120228 )
( 11.680385052832468 4.3416334478919305 -0.0444323720614404 )
( 11.429248180038948 4.555204925695694 -0.0431405969163729 )
( 15.751093454160676 1.702418551798902 0.0566283212757921 )
( 15.545707395698576 1.8251372404007973 0.0756884961835116 )
( 15.293727222957118 1.9901589991963209 0.0912932601377043 )
( 15.063184492309588 2.1033337286036105 0.0945021133317554 )
( 14.834872933846814 2.214234094160937 0.092665510450974 )
( 14.600467087112294 2.3400623545780137 0.0836772755726065 )
( 14.351318221385185 2.465554313035296 0.0692254488020586 )
( 14.08500964119356 2.6059600724147503 0.0523239773033862 )
( 13.812754778951184 2.771308842482105 0.034904956349338 )
( 13.531024240257686 2.952143394222038 0.0169127308256499 )
( 13.229497034455026 3.1622459758934625 -0.0010919581584358 )
( 12.928585764301536 3.3664150700305435 -0.0167281539905479 )
( 12.654057529651556 3.5406372129407604 -0.028245193546874 )
( 12.40193538696663 3.687099444170233 -0.035427761481364 )
( 12.152071114054449 3.821658525889471 -0.0400483658343313 )
( 11.892805164816442 3.96535605864544 -0.0423286405909634 )
( 11.61783014629729 4.127871561712181 -0.0412724481407647 )
( 11.339810067523064 4.323864982800402 -0.0410446748887515 )
( 11.10745023806853 4.585798141079853 -0.0414282536083491 )
( 15.664907577573148 1.655741503703532 0.0574698622360674 )
( 15.447617441931785 1.7743484708866024 0.0750541526504999 )
( 15.190315603507296 1.9372874498072816 0.0890710391025439 )
( 14.958204626144443 2.045181668190509 0.0912188593813531 )
( 14.72179353068652 2.151697296872307 0.0877570493510977 )
( 14.47338495111422 2.275312531446395 0.0775871770789998 )
( 14.21136323530873 2.3943927732302024 0.063240129209635 )
( 13.938967408193108 2.532622209405188 0.0468759354286884 )
( 13.650541520842308 2.7017565289490384 0.0287758322616481 )
( 13.3455887081916 2.879257644319936 0.0110306479486056 )
( 13.032537241837328 3.085889977348558 -0.0052138904966194 )
( 12.716708860951591 3.304575402322981 -0.0198078043264205 )
( 12.43082654258161 3.47993850028648 -0.0291870427658309 )
( 12.165120691083 3.622958581346917 -0.0342570433183657 )
( 11.892545660798149 3.7652159217491934 -0.0384549280616214 )
( 11.601413277981797 3.913888810138173 -0.0397635918577233 )
( 11.305732740585867 4.092371346546615 -0.0393474693277617 )
( 11.035597530418563 4.324216920494711 -0.0410453733327117 )
( 10.838690219211006 4.64091714669734 -0.0398332578719997 )
( 15.581567509665051 1.606927790382855 0.0585167853707822 )
( 15.357438004195908 1.7211512260662114 0.0749952291333411 )
( 15.093926633973034 1.8785798864098275 0.0872846941043037 )
( 14.861309534861553 1.9818806597635528 0.0877240058086791 )
( 14.6188332139183 2.089563314654289 0.0829104274862141 )
( 14.35801765034588 2.209195868207479 0.0719138647767207 )
( 14.08622332364864 2.318387498268349 0.0576373157047029 )
( 13.802790592052386 2.459300749449799 0.0415788858136044 )
( 13.496428677488606 2.6323176359204883 0.0235359919743281 )
( 13.17430539720425 2.813052123417247 0.0063935543507029 )
( 12.842346928260856 3.013370360323718 -0.0083646118313312 )
( 12.512784308538416 3.222715018888417 -0.0206968894699815 )
( 12.215637907317294 3.404071643066378 -0.0284385458118369 )
( 11.928321499938315 3.5567190225423744 -0.033115003779921 )
( 11.629610364666055 3.697787097678942 -0.0363427138198865 )
( 11.31769855622427 3.8544859810922265 -0.0369318800021338 )
( 11.01374304708482 4.058751513328999 -0.0385306004115159 )
( 10.77260961647633 4.342332066092372 -0.0406904580411013 )
( 10.578542697178891 4.701765024662477 -0.0380688026909799 )
( 15.50441727113345 1.554828691482885 0.058432823924896 )
( 15.27713564728846 1.6642067011752233 0.0735994555598938 )
( 15.003666364119995 1.812552568710729 0.0846401679786572 )
( 14.770373842894038 1.9150155015620056 0.0840705263337915 )
( 14.520706794302685 2.019790196242224 0.0778168870713379 )
( 14.246577301067468 2.137579732333011 0.0663196608706448 )
( 13.97489635723343 2.247487986050176 0.0524423242044352 )
( 13.677462049994864 2.3808953447205496 0.0365979238347269 )
( 13.350012504700729 2.5533720029075697 0.0188094429193967 )
( 13.009273273232056 2.7416877766039023 0.00209311623843 )
( 12.65419197573183 2.945720637937303 -0.0117105877059718 )
( 12.318582136580163 3.145017953366806 -0.0220430458302463 )
( 12.003385082124655 3.3218035266943877 -0.0291913267226917 )
( 11.690319876369912 3.481793218768968 -0.0327576864319843 )
( 11.376638202278803 3.631406702164075 -0.0340080278337526 )
( 11.056358097612506 3.809511002773976 -0.03441937723315 )
( 10.756121616476747 4.049916153658432 -0.0370134879506913 )
( 10.530426216341697 4.376694248507878 -0.0388923835361367 )
( 10.23819211429166 4.716185442788022 -0.0376971497056344 )
( 15.43968315824897 1.5010265443791342 0.0581719833300069 )
( 15.201607573793734 1.6021696068137845 0.071189162473697 )
( 14.92022671042458 1.743972013801713 0.0813541488120741 )
( 14.682675691516778 1.8451287736235504 0.0803529920161175 )
( 14.426965542567093 1.9488557413141256 0.0734418084759196 )
( 14.143933341579157 2.068346023012962 0.0614860550606321 )
( 13.861040769325404 2.178032700786096 0.0473249908971827 )
( 13.556198515385598 2.3032168562795343 0.0322745260214343 )
( 13.217547633724552 2.468752256439853 0.0151766450513037 )
( 12.856090947541864 2.6545591657263743 -0.0010935874988045 )
( 12.484572855769336 2.8666446752561177 -0.0146452534314265 )
( 12.13822017256958 3.0722091809432084 -0.0244228509285768 )
( 11.799492407048165 3.244547910602579 -0.0306364947826723 )
( 11.466501316999269 3.401217204884537 -0.0330434530001929 )
( 11.133645988645256 3.575119339226605 -0.0322838666857724 )
( 10.806039794917549 3.778997789856284 -0.0329748643389289 )
( 10.523078922342068 4.054973389819346 -0.0368765657304174 )
( 10.25226176439559 4.406485156030762 -0.0360810718211591 )
( 9.770825265138104 4.657005097777642 -0.0365902971291148 )
( 15.3757719562688 1.4418566599368865 0.0570805836904531 )
( 15.135143215998005 1.5411579848684287 0.0679955025832303 )
( 14.85108287822688 1.6756626495151612 0.0767080961591615 )
( 14.603025264421207 1.7682342423736004 0.0750453348830181 )
( 14.341018346853616 1.8734385792122856 0.0684513772968366 )
( 14.05363336630596 1.996446077910467 0.0566192287550959 )
( 13.757176235346243 2.1014693824972714 0.0423957350268442 )
( 13.445644612536304 2.220934701007609 0.0280263191767524 )
( 13.088810950414016 2.386150420339781 0.0114067629655985 )
( 12.710508821316369 2.571815995843861 -0.003779091140748 )
( 12.325427285875064 2.782496652842455 -0.016508909138061 )
( 11.954507063466162 2.9918450191606403 -0.0258565605709312 )
( 11.604682047648886 3.1715510483033627 -0.0302062012118179 )
( 11.265333890864298 3.3294993160345934 -0.0318378219030073 )
( 10.911953950691872 3.520507161937632 -0.0319325641193268 )
( 10.57119628284639 3.755341421704036 -0.0342295248305137 )
( 10.29303046181313 4.062218416147739 -0.0362377634496637 )
( 9.93073748180041 4.408702531683654 -0.0337501229100834 )
( 9.150645875604754 4.495919500887683 -0.0351542883481947 )
( 15.31493373312292 1.3802779243023462 0.0539084292097251 )
( 15.074025203695278 1.480330199372787 0.0642529867378888 )
( 14.787218833508746 1.6116305610823034 0.0720520699536391 )
( 14.534646009641444 1.7001292395304652 0.0700900831056169 )
( 14.262516029790977 1.8018401476012784 0.0638691725130719 )
( 13.961040070606408 1.9140615257243452 0.0521125164553372 )
( 13.655246999942188 2.017395637953635 0.0375149380979204 )
( 13.337895704326275 2.1345029834101323 0.0229663750161267 )
( 12.956509628916033 2.300104272839132 0.0072568751296348 )
( 12.562240493594638 2.4928349832216354 -0.0064286304063706 )
( 12.174400800677605 2.6987955355302167 -0.0179209531497897 )
( 11.79317541995495 2.9095260594984667 -0.0261142903440318 )
( 11.43000438163171 3.099102790478572 -0.0291286941431883 )
( 11.065291392179205 3.2637503138308537 -0.0295391982187453 )
( 10.702390389909732 3.462830528756859 -0.0302595041294264 )
( 10.360706053323623 3.728307342763621 -0.0332401016862968 )
( 10.034332717132765 4.06361216522822 -0.0344111307466041 )
( 9.59103757440289 4.386501615036675 -0.0345728766063452 )
( 8.323426242102768 4.186887394827998 -0.0327966189914988 )
( 15.26145153558315 1.324502700955288 0.0508568651292046 )
( 15.014799600119966 1.4203120922195758 0.0616192452254845 )
( 14.724860799713122 1.5472335159546022 0.0687160344570327 )
( 14.471912815848786 1.6356428566567511 0.0670547853313741 )
( 14.18990313272668 1.7307915213956044 0.0602336806035439 )
( 13.880239692869576 1.8317352366187167 0.0476910077105846 )
( 13.56539480808546 1.939622084957553 0.0333765353814361 )
( 13.23184733780508 2.063335128364784 0.0193381727833399 )
( 12.831482113774731 2.221193311500376 0.0046074856715121 )
( 12.41741765347628 2.415192629932102 -0.0082497357897014 )
( 12.02338143797684 2.6162716239839785 -0.0186194775484516 )
( 11.640541995983464 2.8142686866457143 -0.0259932813953867 )
( 11.260650205713862 3.00367308548095 -0.0280034249581484 )
( 10.871976157469703 3.1850275872511102 -0.028397797402558 )
( 10.496356882520786 3.4038160163453863 -0.0280934673571508 )
( 10.147036140015205 3.69558390853624 -0.0285119744213831 )
( 9.745937747004362 4.043940462924828 -0.0303476737537778 )
( 9.071068578662832 4.252781032304534 -0.0306186514216671 )
( 7.493343525656403 3.8395011759082527 -0.0264598657491946 )
( 15.213937873152966 1.2665981418099734 0.0485761875474327 )
( 14.962984434892071 1.3609461729962131 0.0592770467117085 )
( 14.665219390084934 1.4835957912776303 0.06574098386847 )
( 14.408443827462118 1.5658915152283897 0.0634002804229109 )
( 14.121733504282153 1.660040348304939 0.0554676466984509 )
( 13.812635425559105 1.7631802930930314 0.0431013581307842 )
( 13.493866120706224 1.870525702150894 0.0304836648771561 )
( 13.137696200513748 1.991233001156632 0.0171502863508724 )
( 12.725995408060026 2.146460702878904 0.0029243139528443 )
( 12.304061317711652 2.3378624754890605 -0.0088410046608696 )
( 11.891843666703863 2.5365110334940506 -0.0185824055716009 )
( 11.48436346994432 2.724899632817519 -0.0258544408045797 )
( 11.084490182861146 2.907308350564841 -0.0285816186697104 )
( 10.683079668342078 3.0996796699200844 -0.0297857890026429 )
( 10.29918633715864 3.3458516272129537 -0.0291733682957127 )
( 9.92404571791977 3.672746830599265 -0.0288205251900267 )
( 9.455058061208408 4.0101549855197005 -0.0281426078726361 )
( 8.472435788214 4.033892234482847 -0.0244798768636708 )
( 6.759612775992982 3.50799278623266 -0.0222125271447349 )
( 15.171840543689552 1.205883308429822 0.0464170731343112 )
( 14.92107079184719 1.2996325567028315 0.0559140192424645 )
( 14.614988100115204 1.4211314264683397 0.0619217427669804 )
( 14.349715905995996 1.4976622299010145 0.0590053363695157 )
( 14.055870197472156 1.5869415149776582 0.050536097667114 )
( 13.742659589336109 1.6898791607655552 0.039470636081938 )
( 13.416842686781964 1.7858859546267634 0.0275563974115282 )
( 13.049297586751262 1.9041736438116448 0.014778625742566 )
( 12.638549899080497 2.0692843663137204 0.0015181289098153 )
( 12.208719077701764 2.257445054121457 -0.009983108923618 )
( 11.773285260976786 2.4574407345192983 -0.019698699865969 )
( 11.340359333390724 2.6388673132511027 -0.026337508102251 )
( 10.922031588702914 2.816285309428032 -0.0305223022363927 )
( 10.49829910949007 3.022888230314796 -0.0321863163517023 )
( 10.10138729413774 3.287249560072834 -0.0302706275769839 )
( 9.675312592410188 3.6315823970834415 -0.0304089556763899 )
( 9.113467596516946 3.929780200871312 -0.0296485210658948 )
( 7.9475509292054785 3.8101932930289535 -0.0228531169688552 )
( 6.062733416401157 3.1600730888958117 -0.019868238424005 )
( 15.135155097849552 1.1527810883486762 0.0441183140090643 )
( 14.881838818937265 1.2407978897288494 0.0526634982695723 )
( 14.570120401868 1.3560325499019583 0.0578361425906588 )
( 14.298845260827823 1.4312357787048102 0.0549341649086903 )
( 13.99776525573322 1.5135528662939068 0.0468139525762176 )
( 13.680236491170024 1.6074686955897046 0.0357917782653931 )
( 13.340935893857443 1.6980396741533417 0.0239391606851993 )