/*--------------------------------*- C++ -*----------------------------------*\
| =========                 |                                                 |
| \\      /  F ield         | OpenFOAM: The Open Source CFD Toolbox           |
|  \\    /   O peration     | Version:  2112                                  |
|   \\  /    A nd           | Website:  www.openfoam.com                      |
|    \\/     M anipulation  |                                                 |
\*---------------------------------------------------------------------------*/
FoamFile
{
    version     2.0;
    format      ascii;
    arch        "LSB;label=32;scalar=64";
    class       volSymmTensorField;
    location    "0.0031";
    object      tauij_LES;
}
// * * * * * * * * * * * * * * * * * * * * * * * * * * * * * * * * * * * * * // 
 
dimensions      [0 2 -2 0 0 0 0];
 
internalField   nonuniform List<symmTensor> 
13597
(
( 0.2006169450550624 0.0734151975664748 -0.0108551529380919 0.1263073662593549 0.0502594141196917 0.2156530779767215 )
( 0.2060955046549194 0.0758979526170776 -0.011683821673476 0.1301197518225288 0.0506124746633312 0.2047631795182381 )
( 0.2161818461074487 0.0796478477344651 -0.0135876008868092 0.1368095794199527 0.0519667301431146 0.185670199638156 )
( 0.2296474219279832 0.0841588441313639 -0.0153423651360838 0.146750863812349 0.0543479296703527 0.1669751147250203 )
( 0.241117314272139 0.0884159969185482 -0.0166909783714317 0.1563196575738188 0.0560987685073122 0.1544061017661309 )
( 0.2505750754668585 0.0920704925452102 -0.0177584603046577 0.1647828486746493 0.0570332351728737 0.1457741586626226 )
( 0.2597681861513761 0.0955276681238322 -0.0190325214455292 0.1727358448106885 0.0577911665257204 0.1392861887805279 )
( 0.2687419761261833 0.0994879977541609 -0.0204802552527434 0.1801623698821606 0.0582772499982142 0.1335296924791503 )
( 0.2779086591028046 0.103622773239835 -0.021582134025266 0.1871818862348142 0.0588750442274886 0.1292047266475925 )
( 0.2867217826248918 0.1074373499521054 -0.0231256240076446 0.1932268879403894 0.0592240102992053 0.1253461811440942 )
( 0.2955990900601096 0.1113473446547026 -0.0244280085676961 0.1988932097558363 0.0591708190931567 0.1212905937548709 )
( 0.3048137326582066 0.1152650480081647 -0.0253484297199289 0.2033936408541966 0.0588126756413877 0.1179939475938103 )
( 0.3128607310481361 0.1188423637168852 -0.0264153546934778 0.205716849474021 0.0581497228883634 0.1145069763703668 )
( 0.3203115863636892 0.1224506958187057 -0.027464749652499 0.2072645209558955 0.0570516039297329 0.1104464683796703 )
( 0.3278007763656483 0.125788003101596 -0.0288124610631923 0.2081506543310715 0.0551517424953655 0.1065172981188143 )
( 0.3348080471155323 0.1290808676204728 -0.0300280041019199 0.2076925030910963 0.0526497862006326 0.1025239267742857 )
( 0.3408451774384055 0.1320073237670702 -0.0306485280156175 0.2060218979769272 0.0496085936187453 0.0979031045407368 )
( 0.3451097989949488 0.1339598957621752 -0.0309309320644521 0.2031392795750355 0.046308881120422 0.0931649776515595 )
( 0.3496669091233044 0.1362495094194054 -0.0315174659123019 0.1998037568980088 0.0425747693269323 0.0884807466949948 )
( 0.2148891208095447 0.087812595326881 -0.0137213047761886 0.1415723245655055 0.0416872874568223 0.2032510157328401 )
( 0.2222932039809823 0.0923736218364033 -0.0161118410993545 0.1469432727153125 0.0402917676211871 0.1903625702345594 )
( 0.2347846446741555 0.0975649186056998 -0.0193509076272622 0.1563952223004659 0.0397783066315782 0.1675207939355113 )
( 0.2504085313416271 0.1033425356318689 -0.0203663622315214 0.1695021652588956 0.0399810141813813 0.1481271521023633 )
( 0.2616398747433667 0.1079248430286725 -0.0214235881011281 0.1802946036105002 0.0395564177340754 0.1359155428837501 )
( 0.2708359038857751 0.1115659384527287 -0.0219391597054245 0.1901615546027274 0.0389987268317172 0.1264916465848267 )
( 0.2783566085381844 0.1147542331241237 -0.0219208482376795 0.1992279703634892 0.0383450833813798 0.1188228376276648 )
( 0.2853681158168923 0.1175199788781687 -0.0220233857603382 0.2076700534178376 0.0371354810857964 0.1127165977366761 )
( 0.2925354584399553 0.1198402772666507 -0.0213064298959225 0.2148741312135728 0.0360929498950128 0.1083605061368389 )
( 0.2977078491842461 0.1213445999107036 -0.0204892606360204 0.2206206720872996 0.0345873759468899 0.1044684598518982 )
( 0.3010575154162229 0.1220452325382429 -0.0197737536686789 0.2256993319713871 0.0322975752991256 0.1011872804470543 )
( 0.3033727892823574 0.1223977824141374 -0.0190018132994025 0.2300511618361255 0.0291322481676889 0.0986704179353012 )
( 0.3032864936055796 0.1215283150673033 -0.0186123932799215 0.2325583802965544 0.025270722212704 0.0971758424289992 )
( 0.3016564234366774 0.1203338426079506 -0.0185357452688731 0.2341161603409935 0.0210995151908412 0.0965512643743406 )
( 0.2997062566619198 0.1196149212671381 -0.0185335013807265 0.2354022774192044 0.0164085412038501 0.0964937728851345 )
( 0.2969810761686893 0.1188347354962054 -0.0191698619919496 0.2358275928225699 0.0112918814200686 0.0963179402790694 )
( 0.2938710312606211 0.1179628700636049 -0.0199113559936905 0.2358339754899716 0.0062509500910764 0.0958050310214232 )
( 0.289725731907215 0.1167105202714575 -0.0207292794292515 0.2356000005752156 0.0011673366194445 0.0956642435558348 )
( 0.2860659403977533 0.1163252975987831 -0.0215552978042064 0.2352614804264566 -0.0035794712751462 0.0956597805979362 )
( 0.2270875658938958 0.1013580767085884 -0.0202733497269305 0.1545266010319227 0.0344352934144193 0.1976883249612847 )
( 0.2356797209300528 0.1061320284966166 -0.023916978453515 0.1612016624988561 0.0321641718231635 0.1839731382210846 )
( 0.248958826674473 0.110477019101619 -0.0261723594687484 0.1720763092428548 0.0302295616352473 0.158863858787722 )
( 0.263011050656008 0.1143390543045989 -0.025445871571858 0.1855849672345619 0.0291201240446534 0.1390139696004264 )
( 0.2711636801528682 0.1161485410717944 -0.0253575293543088 0.1952916246176784 0.0276286993006109 0.1280189377787586 )
( 0.2770610911819293 0.1163465333772288 -0.02443033286284 0.2038744069279904 0.0262715348341615 0.1201356484262847 )
( 0.279797208715583 0.1153459649464848 -0.0229091598191919 0.2113902885536616 0.0243047242013567 0.1135861171590259 )
( 0.2800842589781168 0.1132116718522283 -0.0215453645011011 0.2176542650346653 0.0213218906684644 0.1095680158437269 )
( 0.2794872602454117 0.110002426344186 -0.0199649918006728 0.2228978384180727 0.0180347851238017 0.1077183793230451 )
( 0.2765067059235993 0.1062708452255262 -0.0183615068737431 0.2276692209456471 0.0138477495247748 0.1066560784435801 )
( 0.2700264828446852 0.1018055257306259 -0.0176169413872878 0.2312140859346329 0.0086798996445335 0.1074888687881562 )
( 0.2627890201231097 0.0971620923013049 -0.0173443397695115 0.2348491477210695 0.0023675910493757 0.1101003968023709 )
( 0.2547909216051522 0.0924138799312247 -0.0179650936695679 0.2386802693787137 -0.0048824517206989 0.1140661121946109 )
( 0.2462168316501345 0.0885152433938132 -0.0194579391261723 0.2423396918336807 -0.0121265211458531 0.1182798736398507 )
( 0.2391234819606538 0.0862728596559783 -0.0207283938798695 0.2459598825953438 -0.0187102990790657 0.1220508391627423 )
( 0.2331061152700679 0.0848829278312197 -0.0220358314754191 0.2494056494733135 -0.0246021485655272 0.125301227582572 )
( 0.2277377025550435 0.0842824142983697 -0.0231971383799826 0.2527041500832769 -0.0298043693517919 0.128215080204172 )
( 0.2231369364371274 0.0844900583131603 -0.0240547866393764 0.2558192780390693 -0.034270136626435 0.1310345499812023 )
( 0.2196046708438968 0.0859228556111859 -0.0244510515564009 0.2590748545286884 -0.0378796788436484 0.1331392097722286 )
( 0.2360248940173447 0.1111768493882431 -0.0284938980083021 0.1645604564313525 0.0284197390774682 0.1950732479632623 )
( 0.2443490819694906 0.1143850739516209 -0.0328074816943942 0.1715542510069614 0.0255687838993896 0.1797936293257618 )
( 0.2558488355671798 0.1151228944410789 -0.0340915121770918 0.1815022460929025 0.0227195723545508 0.1547206906357918 )
( 0.2646251732863341 0.1135039323134402 -0.0319036849224714 0.1921177819291633 0.0207148670063261 0.1368920721133834 )
( 0.2661164440607363 0.1098481799113149 -0.0298622556161375 0.199072022067138 0.0184168729808162 0.1280789341781098 )
( 0.2643328981667923 0.1044512863288476 -0.0270803117656019 0.2046951564816455 0.016064889927104 0.1226619230744267 )
( 0.2600686729103812 0.0976911303551884 -0.0242202464171122 0.2093008904181207 0.0128671173565748 0.1194258253537158 )
( 0.253294357088372 0.0907091716299539 -0.021061482902531 0.2132820044989864 0.0084781725077324 0.1187410473069402 )
( 0.2453686755257665 0.0840571935860599 -0.018653029162066 0.2175423512477584 0.0034192023728165 0.120275449076724 )
( 0.2372404490691826 0.0778711756143526 -0.0168485886555854 0.2228300198365642 -0.0028224685893417 0.1232553220300218 )
( 0.2276609346034402 0.0721763776070261 -0.0161190671352907 0.2279359692531984 -0.0103078558587123 0.1275253100171078 )
( 0.2186276867645576 0.0682863645888139 -0.0159565053169446 0.2344403005710664 -0.0181449147603772 0.1329691007945604 )
( 0.2118014514159419 0.0668431261534662 -0.0158893919534676 0.2420528321674269 -0.0261192077784865 0.137922312484454 )
( 0.207079965954869 0.0673689886180976 -0.015883551460163 0.2501580476022072 -0.0334697732585565 0.1433928428805199 )
( 0.2043954983559744 0.0694373772425857 -0.0149895701820241 0.2580450249155188 -0.039092444316128 0.1484885159305307 )
( 0.2033056030913573 0.0729177932238256 -0.0137239355667935 0.2653390055200686 -0.0435688953465676 0.15221143589033 )
( 0.2031154018571009 0.0773183545850863 -0.0120237692818746 0.2720895726691885 -0.046848992106533 0.1556230872564433 )
( 0.2042734017273305 0.0826594475377494 -0.0097528382887603 0.2787690790198727 -0.0493090497306925 0.159021333445234 )
( 0.2064210648786177 0.0894081845723908 -0.0072418683356224 0.2854836805328456 -0.0510761060116353 0.1622955433056198 )
( 0.2406651753879457 0.1158069591295667 -0.0382210210819221 0.1718288355495707 0.0233988002291077 0.1931621487468617 )
( 0.2459423995437529 0.1152122089801928 -0.0413573934211003 0.1769266091560986 0.0202758420336686 0.1763222349211912 )
( 0.2519048685811129 0.110467182245898 -0.0399155034493373 0.1841093620924803 0.0172588902700732 0.1527918557625115 )
( 0.2531671564695597 0.1032072918978336 -0.0345377496688101 0.1912620073183008 0.0144468553225693 0.1378697353228591 )
( 0.2474240112742627 0.0946938279569582 -0.0291233154713735 0.1947874286114451 0.0117798055941057 0.1313088254441383 )
( 0.2403506252949173 0.0856630366090062 -0.023412250224644 0.1977867384161725 0.0086560110278531 0.1278445202334864 )
( 0.2318259648526259 0.0764891147878609 -0.0177523329524448 0.2010468972082404 0.0046415436131884 0.1268140046568379 )
( 0.2219132239522142 0.068398640785539 -0.01259745461559 0.2044107724815983 -0.0001607747986594 0.128454653935999 )
( 0.2138755804859159 0.0628580683948425 -0.00902535190278 0.209368657350147 -0.0064774429683467 0.1314653920881214 )
( 0.2075880280772946 0.059285400799418 -0.0064789983185057 0.216813350505494 -0.0141030613051355 0.1363223357753636 )
( 0.2028719855979011 0.0583656704837736 -0.0044119215508263 0.2269669824526858 -0.0228120330282376 0.1425610068577135 )
( 0.1999073663877138 0.0610320891883531 -0.0019060048933424 0.2392177590395334 -0.0310283592171844 0.1491252421634812 )
( 0.1994540005593704 0.0669263009178863 0.000775632100643 0.2523618162942501 -0.0380723961256568 0.1554036999965055 )
( 0.201509067898811 0.0749686475904816 0.0033924610466174 0.2657321427935457 -0.044125642833448 0.1621264709698538 )
( 0.2046557092311732 0.083546558553126 0.0067567633501874 0.2774997080721659 -0.0482628286791476 0.1680277805746249 )
( 0.2088102533929839 0.0932519265829509 0.0102175880722273 0.2881910945494135 -0.051235202732516 0.1729255566183787 )
( 0.213755577789272 0.1038553673429902 0.0133102847079282 0.2982029261467113 -0.0533334716789893 0.1773432388139713 )
( 0.2199118179247501 0.1148521060041253 0.0161634102568884 0.3076031130771914 -0.0550134196322473 0.1812748189313592 )
( 0.2270294379884314 0.1272046535616282 0.0184664679670598 0.316619327788931 -0.0564399104631268 0.1852484607095888 )
( 0.239008254675913 0.1148256307349638 -0.0453798897342205 0.1749459453049651 0.0193310452060341 0.1911302914061683 )
( 0.2390822420551237 0.1096794949144001 -0.045288104184666 0.1772175934597479 0.0162722517288193 0.1723984496390704 )
( 0.2377693719201857 0.0994419871840073 -0.0384561225393641 0.1805456646387241 0.0139291600951324 0.14999969429731 )
( 0.2327046974941 0.088441365607831 -0.0285180547049738 0.1842295273054341 0.011036340036157 0.1375347897992922 )
( 0.2239160844113132 0.0782365051228138 -0.0196222743328576 0.1855682860623377 0.0083296786777095 0.1319779427799897 )
( 0.2168038763709149 0.0688097784393673 -0.0114574728510647 0.1877096080280977 0.0047953566955337 0.1298355881985253 )
( 0.2096699365225302 0.0614014521807539 -0.004094793838247 0.1914234744944419 -0.0002167050238589 0.1301004130935825 )
( 0.2026147602887857 0.056537867209393 0.0021954726363422 0.1965202300442973 -0.0059714216281794 0.132954145346786 )
( 0.198731021823182 0.0556078820231067 0.0073351052145997 0.2048140112591896 -0.0132740846880497 0.1373345135491026 )
( 0.1973967357562911 0.058734340794427 0.0114902057370501 0.2173002235861238 -0.0219656028461143 0.1438128883883863 )
( 0.1986298683826966 0.0654029055708831 0.0149821721101686 0.2331673892809297 -0.0307666853846794 0.1516796176832367 )
( 0.2020946488566956 0.0761980808251396 0.0187615423817131 0.250907500426028 -0.0384595426131262 0.1592885994012511 )
( 0.2076914673321373 0.0901249365053159 0.0221885732364919 0.2694878816462692 -0.0447288436559138 0.1671559403852218 )
( 0.2147459928453453 0.1051394526427971 0.024645850388198 0.2868512385646133 -0.0498567906069447 0.1748401168120108 )
( 0.2222979271245022 0.1203252138338757 0.0268195785359896 0.3018967546451981 -0.0540358239981382 0.1815112648721312 )
( 0.2301431529388866 0.1351608261057651 0.0284719485533466 0.3148305295259335 -0.0570888079150589 0.1872841548481826 )
( 0.2386127512916449 0.1499170133178691 0.0291588974904136 0.3264658948449935 -0.0597134146044026 0.193060529830164 )
( 0.2476748839014798 0.1647073933750263 0.0286823027718774 0.3368736910394673 -0.0622253355126105 0.1982665216716048 )
( 0.2577267298970556 0.1804400749918698 0.0272217720454213 0.3467284607918218 -0.0646011994631634 0.2034966852672307 )
( 0.2290988993324584 0.1089141249481274 -0.0467850191406969 0.1738494990046699 0.0158407855123499 0.1868275039438786 )
( 0.2248274372037172 0.100099381157484 -0.0412498986958071 0.1735971308172581 0.0137850090327837 0.1661897504713023 )
( 0.2201818559267438 0.0871069336032581 -0.029258615552902 0.1741588569721154 0.0120949616896238 0.1448384048079737 )
( 0.2133988544264778 0.0748462570220747 -0.0160477385503152 0.1749507343766523 0.0094457839453535 0.1336885232514038 )
( 0.2068254168161792 0.0656966631420323 -0.0050192830003776 0.1757886083080786 0.0062443872328094 0.1285236027088406 )
( 0.2017590005954419 0.0589217060763715 0.0044863766421916 0.1781461529174691 0.0016882684413823 0.1271047099949093 )
( 0.1970900920610607 0.0555374952803067 0.0127256700610861 0.1832622929303594 -0.0041023968546304 0.1285236748209979 )
( 0.194734853296505 0.0565760550255786 0.0193736270676976 0.192656338086575 -0.0111177052768673 0.1328252020389881 )
( 0.195530470461767 0.062394694875426 0.0250962919085014 0.206059068796392 -0.0192603124190392 0.1387574799408553 )
( 0.1989310023662885 0.0726990569443765 0.0294293267989277 0.2240066487256082 -0.0278979095659347 0.147023012646876 )
( 0.2045783551683528 0.0872544986110793 0.0321201648291473 0.2454971869589828 -0.0364688918197891 0.1569769932716927 )
( 0.2127838838171565 0.1057649817691697 0.034083954648159 0.2686725462105986 -0.0444577201676128 0.1668597973902705 )
( 0.223009216478618 0.1256976139745902 0.034962588640205 0.2910841200354607 -0.0511050627753091 0.1769349106992136 )
( 0.2337738529060917 0.1453671104036132 0.0344232004618252 0.3105690096725519 -0.0566901396914822 0.1865206877896358 )
( 0.2446431685839556 0.164799190671421 0.0332161481371542 0.3280811961968748 -0.0616923773767578 0.1951090617193167 )
( 0.2553704690178501 0.1830276236946501 0.0312484521592603 0.342920414292486 -0.0654722025176194 0.20242450945218 )
( 0.2660156336993842 0.200419283073498 0.0283804814854878 0.3554994804462186 -0.0688735167647509 0.2096410797792821 )
( 0.2776200569928835 0.2183448805989284 0.0244612321050739 0.3671147388277505 -0.0719434940822179 0.2169851880906602 )
( 0.2902815534898592 0.2367374210147981 0.0195532508742618 0.3777812889062225 -0.0745832161334587 0.22393394623882 )
( 0.2161944750966811 0.1000762534503324 -0.0427626219990314 0.1705035309762473 0.0135114282815916 0.1805536143394661 )
( 0.2101956029592327 0.0890824000058374 -0.0316951628876409 0.168020025076806 0.0124835697000887 0.1580265577862175 )
( 0.2060088285560264 0.0761157694063979 -0.0157455762487225 0.1671432772444987 0.0108713503608519 0.1371838348950757 )
( 0.2007687836579705 0.0654917897560447 -0.0007975591242248 0.1666722713149127 0.007994360733808 0.1266833907371168 )
( 0.196839109588843 0.0590679720806343 0.0110818190545941 0.1672392105184011 0.0042537188981371 0.1219475939115805 )
( 0.1943277585773923 0.0563883751327315 0.0209229116560963 0.1713377189494036 -0.0009436557523283 0.1213495095645745 )
( 0.1927792777151452 0.0588231116663936 0.0289943154554866 0.1806564405389631 -0.0077063351303774 0.1237930013593982 )
( 0.1937478267984885 0.0659062923980095 0.0344378171458827 0.1945071441982664 -0.0157862233176476 0.1307095868953466 )
( 0.1981185043454748 0.0779454758377344 0.0383880512046662 0.2128862165110191 -0.0248739533837518 0.1401455724272124 )
( 0.2048802149139193 0.0950416782564387 0.0406366978711219 0.2365236910755617 -0.034217253988108 0.150833627345061 )
( 0.2144753976145788 0.1168293430628162 0.0410439766166014 0.263135772616593 -0.043173535636255 0.1639489508888988 )
( 0.2272545939703836 0.1412262835250471 0.0398400138088841 0.2903139680918238 -0.0514979028290546 0.1774151753762873 )
( 0.2403193979900514 0.1649278885564076 0.0365176778572479 0.3158244852795777 -0.0592199105297693 0.1897521087643528 )
( 0.2533578500055533 0.1878396965530138 0.0321082644295458 0.3381938821282049 -0.0660091999468052 0.201050283591449 )
( 0.2663710552645923 0.2096020519817561 0.0276271654575126 0.3570979767269795 -0.0711410141102464 0.2107155356591524 )
( 0.2795269173884566 0.2304978020037656 0.0227042052345676 0.3734540445004138 -0.0748685251979099 0.2195264968119541 )
( 0.2930033351253486 0.2510371615081841 0.0173046046147212 0.3881538993427793 -0.0781646135878412 0.2282168531855429 )
( 0.3079944051466566 0.2721312430857653 0.0114170224338442 0.4017601856797757 -0.0807699150281262 0.236919235165512 )
( 0.3244311580778224 0.2932775154969682 0.0051499073915166 0.4138456752650833 -0.0826608455649438 0.2443389431758424 )
( 0.2035266561438458 0.0899558682627842 -0.0333983400567693 0.1655233124863352 0.0122100460472063 0.1712300318217572 )
( 0.1979825254860739 0.0788044324977803 -0.0187496176660712 0.1614681577097477 0.0117121045291765 0.1464811526287593 )
( 0.1957847753971999 0.067626327757001 -0.0011353180772077 0.1592044035360857 0.0100179297948741 0.1263090360801594 )
( 0.1932729923165343 0.0603511422474075 0.0141324333697871 0.1586237814937532 0.0066665766817788 0.1170085048983061 )
( 0.1916054649814914 0.0576627563657919 0.0260238964248182 0.1610851156756149 0.0024219489421154 0.1135963029705 )
( 0.1911468891026098 0.0593548352291396 0.0344078552012939 0.168702175265721 -0.0036956721865283 0.1152160871616646 )
( 0.1921722441972378 0.0670960510269354 0.0404613195447678 0.1821974890038476 -0.0116254474693393 0.1204655037916222 )
( 0.196098783040841 0.0798480330599285 0.0439879067756037 0.2005841764829843 -0.0207679961756772 0.1306200949942037 )
( 0.2030315160899677 0.0976742262141807 0.0454068630383569 0.2241099491257351 -0.0306363527069942 0.1441918249310847 )
( 0.2126890660512601 0.1208819598931591 0.0444282564908799 0.2536387770719843 -0.0414702127030087 0.1588745492096721 )
( 0.2257862302725505 0.1478120284302657 0.0414404536270241 0.2849744613400877 -0.0513163940340542 0.1743912252903584 )
( 0.2411178001749954 0.175720974401923 0.0370911426895617 0.3149963315266559 -0.0597592525192013 0.1905877286402074 )
( 0.2565296771103887 0.2030711505924985 0.0302666614447832 0.343645826714033 -0.0680074966924796 0.2044036843818607 )
( 0.2718977539005708 0.2292638252990947 0.0229903941101326 0.3692464253840011 -0.0748982579645196 0.216926628759059 )
( 0.287198179162051 0.2534686853528445 0.0166459829088179 0.3902818661271912 -0.0796437389230612 0.2279755178736159 )
( 0.3031447172623338 0.2772787891015734 0.0101276187838764 0.4091056589791105 -0.0828169111310522 0.2373258060959462 )
( 0.3197820862809782 0.300849331753264 0.0035292614080387 0.4268447729357105 -0.0854777466963689 0.2460378879271681 )
( 0.3389088568587634 0.3251010201372189 -0.0030890732839401 0.4432471362716145 -0.087306357129842 0.2537477435661484 )
( 0.36122441604187 0.3503712042027089 -0.0097173458078058 0.4579731571771489 -0.0881223718309426 0.2597100449185376 )
( 0.1939373349205855 0.0802317711008924 -0.0199370843585809 0.1603301512951552 0.0123300352635303 0.1590323423603165 )
( 0.1906224127180141 0.0704841249080129 -0.0043508161306125 0.1553389021573322 0.0116350722869051 0.1327938144331287 )
( 0.1892353287705235 0.0622171230857831 0.0128621156970918 0.1521413312972008 0.0094986001679159 0.1137288699198507 )
( 0.1887815731193748 0.0587649449478101 0.0272608993443467 0.1528793603955921 0.005691156263934 0.1063659043291094 )
( 0.1889913270771694 0.0601469401974888 0.0370903532606001 0.1588522562070801 0.0002376414944148 0.1058849790611833 )
( 0.1899717368953413 0.0662850695721546 0.0432728519615423 0.1699067450215136 -0.0073185629943818 0.1109695375766019 )
( 0.1929550804471812 0.0785051510975489 0.0469885984299083 0.1864848708359223 -0.0162442525449217 0.1201228475399582 )
( 0.1993280238807415 0.0967514271953473 0.0479902384771832 0.2099706405718823 -0.0265002342194181 0.1341000812949508 )
( 0.208572103140524 0.1197126016956488 0.0467525936918173 0.2386091070328083 -0.0369466143451815 0.1508012123142601 )
( 0.220905499625018 0.1471811708971955 0.0428970432568572 0.2723959523516712 -0.0480589605619432 0.1682970418068676 )
( 0.2360460323105237 0.1774563805103286 0.0364801076031475 0.3088964454144694 -0.0590873770479852 0.1862647837767105 )
( 0.252397454464526 0.2081496484361518 0.0288300113506203 0.3436437257938227 -0.0686020160850458 0.2039989671387827 )
( 0.2700990640350827 0.2386509306405938 0.0205890316221999 0.375267024919913 -0.0762932566219301 0.2194297392302564 )
( 0.2881057605425902 0.2676086499179196 0.0123855844029286 0.4036019983492869 -0.0821981822178163 0.2323896378916604 )
( 0.3062242094056548 0.2948970595999994 0.0047853706713552 0.4283279395611626 -0.0863053542983011 0.2430509154370267 )
( 0.3256242776949389 0.3222379598599349 -0.0023979720803319 0.4512864160174874 -0.0889384903327609 0.2519033919239792 )
( 0.3468492728252725 0.3501501046277978 -0.0093947559264551 0.4735236539930973 -0.0910207588742585 0.2592556767911277 )
( 0.3720921901125761 0.3792776027158322 -0.0165121543570778 0.4940534708390533 -0.0923191001503874 0.2644438251176513 )
( 0.4030406620263006 0.4104647813789125 -0.0234004048130714 0.5121334340584132 -0.0920988524607354 0.2674381741350433 )
( 0.1875746599882282 0.0727399197018587 -0.0068053539279781 0.1562202286807939 0.0122199951562106 0.145085780130664 )
( 0.1863929792706196 0.0652508513902872 0.0083664992647191 0.1507604850635942 0.0112610319960993 0.1187138535922877 )
( 0.1856684799203304 0.0598535814176128 0.0249333369651482 0.147775140616008 0.0089298878028221 0.101704809130324 )
( 0.1855540929921087 0.0598161799686675 0.0366188728037807 0.15043451458835 0.0042960675086589 0.0972375127613379 )
( 0.1861439332608368 0.0651506404566085 0.0436696445835647 0.1586152420458703 -0.0025122446477645 0.1000954107907423 )
( 0.1882621924029452 0.0755462955612672 0.0479501029391248 0.1732450851549106 -0.0112078692477242 0.1091706054915976 )
( 0.193536035312611 0.0915642981728708 0.0492477607160183 0.1941513927610262 -0.0214322176253212 0.1227603035604757 )
( 0.2018743725893835 0.1136961400246638 0.0478101906061257 0.2217046505458064 -0.032510624197429 0.1407239962916381 )
( 0.2132748134338694 0.1407359280976495 0.0441230231379823 0.2553122590871233 -0.043735623328892 0.1603839916705492 )
( 0.2273297510483971 0.1712448735009002 0.0377853128060021 0.2932227214732932 -0.0547080259811204 0.1792572141259643 )
( 0.2437379502151059 0.2040706337675022 0.0293662458226222 0.3340588050831559 -0.0657755148491829 0.1986934733940379 )
( 0.2622887140165309 0.2384429869861613 0.0196777654641062 0.374754945511946 -0.0759302733398379 0.2172415593927669 )
( 0.2818196506326679 0.271416038480647 0.0107960242629675 0.4101267798133649 -0.0829923042845514 0.2326686301089556 )
( 0.3024521092230947 0.3032957482805749 0.002239888010313 0.4423886381005474 -0.0882642542832732 0.2450126074985699 )
( 0.3243554877098035 0.3351620660194091 -0.0062347458523521 0.4730834367019214 -0.0919991037534053 0.253987756703051 )
( 0.3483818501177744 0.3675106759088249 -0.0138078571859341 0.5019528958475714 -0.0943326602537365 0.2612022500555021 )
( 0.3766037753905969 0.4016702753311537 -0.0211139887747112 0.529988293795166 -0.0956982330341321 0.2661852521502526 )
( 0.4103915784522461 0.4375358201606787 -0.0283049741884488 0.5552985810451626 -0.0958144932181125 0.2684455210913283 )
( 0.4524608012231604 0.4767528242836028 -0.0351760616989536 0.5777447393725901 -0.0943452214664966 0.2685996045656231 )
( 0.1829999368231806 0.0669222818956201 0.0044987658635223 0.1526348879985217 0.0112377226514756 0.1296875455141792 )
( 0.1837192189206067 0.0617634271566861 0.0190280830640012 0.1477266718136966 0.0105153106173229 0.1043426988688496 )
( 0.183824067996977 0.0596515459129892 0.0333934874056057 0.1463145714234242 0.0073722173382955 0.0912326283094108 )
( 0.1830187914406374 0.0626941390682315 0.0419728616384838 0.1506318597891614 0.0017599833097289 0.0904179017217526 )
( 0.1838814637947189 0.0711183772471146 0.0467065091930874 0.1609437123149911 -0.006014874184421 0.0971471291281686 )
( 0.1869837279524065 0.0851270071421711 0.0486592200993833 0.1789008337128341 -0.0158604707035429 0.1103513270093368 )
( 0.1936935021052784 0.1047172129102283 0.0482816363382304 0.2040542808005154 -0.0267547898381972 0.1285582906843646 )
( 0.2031049476008871 0.129980560491822 0.0450968810170241 0.2362824792161615 -0.0384559053108904 0.1499026561652078 )
( 0.2160587341065224 0.1597879788562546 0.0393945326700686 0.2748722025428577 -0.0504008013367571 0.1707225857307517 )
( 0.2312209046359575 0.1926722865500043 0.0311589657568318 0.3175562405709257 -0.0617538504672942 0.1908410613806124 )
( 0.248772529276261 0.2281207987679616 0.0214063199620177 0.3628107288528227 -0.0726577801871966 0.2108607982639566 )
( 0.2695584613697491 0.2657650949669938 0.0112668638164963 0.4082451854056556 -0.0819490627572114 0.2290059557613895 )
( 0.291969238180444 0.3026586093463941 0.0015803501066949 0.4496036968879243 -0.0886119001090276 0.2429444063782263 )
( 0.3169122357834661 0.3395980716417122 -0.0074923989680479 0.4884688197503137 -0.0935045904014196 0.2536169033716846 )
( 0.3437048206892129 0.3772055169802436 -0.0161305381850358 0.5264910949151423 -0.0970531062841817 0.2613837419455628 )
( 0.3732044795448643 0.4152940939243503 -0.0238948003942145 0.5623370190358787 -0.0991300273765461 0.2663099825377712 )
( 0.4087435960627196 0.4560115272001218 -0.0310345016398451 0.5962784239432454 -0.0993779045007019 0.2684345452752951 )
( 0.4534907493293804 0.5008062940723611 -0.0378470396512341 0.6274827776538744 -0.0980531079926939 0.2682974879809821 )
( 0.5096782601179674 0.5502119089177073 -0.0449759867399739 0.6550852335622335 -0.0959417167383373 0.2661888784586637 )
( 0.1814894931871062 0.0622744002299678 0.0135544130825986 0.1503818173277423 0.010788348306648 0.115048829192789 )
( 0.1812109991616604 0.0594080903916225 0.026004236456904 0.1459720441653216 0.0097365269886874 0.0917578691947574 )
( 0.1808153500580334 0.0604858575588771 0.0377442399669769 0.1464787387154512 0.0051835384509613 0.0832147488059962 )
( 0.1805271392273701 0.0663706238247016 0.0441507530533966 0.1532372607782639 -0.0013677398680824 0.0864389486702093 )
( 0.1823577410183901 0.0778053695736369 0.0472332462375535 0.1661075225007721 -0.009964651199061 0.0977830218669321 )
( 0.1867249874039306 0.0950452747417142 0.0475580318889586 0.1868680700099685 -0.0204900496954393 0.1148312377372098 )
( 0.1940865473898709 0.1177837607753596 0.0457097491573856 0.2156471844762565 -0.0317915152080569 0.1359257812378703 )
( 0.2038085012843534 0.1452473849446444 0.041015545426287 0.2528787785718839 -0.044321569260555 0.1595265531599653 )
( 0.2167954383150427 0.1767994967558138 0.0335395700336497 0.2968676372586323 -0.0568803401113504 0.1812115574609153 )
( 0.2330155541823109 0.2119805402029997 0.0243155781973051 0.3442443906684156 -0.0681680769019867 0.2015111969263786 )
( 0.2526084008159965 0.2509361622157199 0.0137917110030416 0.3955062840267774 -0.0792167242942725 0.2218511392544907 )
( 0.2755599812836105 0.2920651373087052 0.0034850379989045 0.4467813182909729 -0.08758706302915 0.2386225006400811 )
( 0.3014108210994859 0.3337453765456027 -0.0066345961691373 0.4953848433693758 -0.0938641927297602 0.2509676800947397 )
( 0.3311980818806424 0.3771242571150857 -0.0161680149684869 0.5431487677317033 -0.0984231066898089 0.2596847460128928 )
( 0.3630409211938288 0.4203199373001463 -0.024277606753239 0.5881688218053713 -0.1009402594839007 0.2649139625183461 )
( 0.3990561137257105 0.4647902678749396 -0.0318253041119987 0.6306070416015435 -0.1021684049909331 0.267405665331228 )
( 0.4439607913053096 0.5145800514292483 -0.039319808337347 0.6729197452977705 -0.1021682185051611 0.2676174990600875 )