/*--------------------------------*- C++ -*----------------------------------*\
| =========                 |                                                 |
| \\      /  F ield         | OpenFOAM: The Open Source CFD Toolbox           |
|  \\    /   O peration     | Version:  2112                                  |
|   \\  /    A nd           | Website:  www.openfoam.com                      |
|    \\/     M anipulation  |                                                 |
\*---------------------------------------------------------------------------*/
FoamFile
{
    version     2.0;
    format      ascii;
    arch        "LSB;label=32;scalar=64";
    class       volVectorField;
    location    "0.0011";
    object      U_LES;
}
// * * * * * * * * * * * * * * * * * * * * * * * * * * * * * * * * * * * * * // 
 
dimensions      [0 1 -1 0 0 0 0];
 
internalField   nonuniform List<vector> 
13597
(
( 17.435291118734234 1.914632613897091 -0.0001291525525552 )
( 17.439681347507737 1.9633468681050208 0.0039486517887449 )
( 17.461075398247953 2.0598754576393588 0.0133133314288992 )
( 17.495381233506308 2.1816267748766456 0.0259843119437425 )
( 17.524812768881418 2.282641284001907 0.037484932766227 )
( 17.545308226259262 2.362584713873098 0.0475075636793365 )
( 17.569047506424226 2.439288555728681 0.0578361164228077 )
( 17.594927561983745 2.520130626781352 0.0689806205751443 )
( 17.62325892790909 2.599266184254579 0.0800344540186851 )
( 17.653194238350718 2.676809188744018 0.0906711118892677 )
( 17.683454983298535 2.762220355912981 0.102314247802357 )
( 17.71922737680369 2.846267641473963 0.1135628838360314 )
( 17.75698304926847 2.9279488110548164 0.1236600991089231 )
( 17.79376187848034 3.0143150143173103 0.1345837721762141 )
( 17.830635330086288 3.103514100499395 0.1464460452525438 )
( 17.86943578780039 3.1921974469317047 0.1579470347415927 )
( 17.910990775223585 3.2770565455613423 0.167258118251786 )
( 17.953213192191118 3.362506597275024 0.1763254296829588 )
( 17.996126452208014 3.4519361980385583 0.1867344187710055 )
( 17.2912999452025 1.9652575484389097 -0.0049298188083943 )
( 17.27580389494258 2.0284543227582827 0.0002479838499468 )
( 17.272354519107186 2.154901835766454 0.014379403899577 )
( 17.273110384528504 2.295553026902651 0.032778456425091 )
( 17.267665091285508 2.4007435358016145 0.0478892169909369 )
( 17.258903251555523 2.494856418316603 0.0621366651623784 )
( 17.25478499900771 2.587194693889524 0.0767167760031135 )
( 17.250346148679032 2.682652640296543 0.0921701743722952 )
( 17.249644589599658 2.7774997769500533 0.107828817820462 )
( 17.249679155546385 2.8708316707128767 0.1227325451493099 )
( 17.24815830680684 2.9737609928043955 0.1391821726149098 )
( 17.246688805220206 3.082022300543212 0.1557565950534243 )
( 17.244254059456356 3.1907356866135026 0.1718738659618819 )
( 17.24527713365391 3.3029560429946017 0.1879020253966604 )
( 17.24824444218499 3.413241130595122 0.2031841495653655 )
( 17.253907701943042 3.518062326219651 0.2167435522627068 )
( 17.26128446733935 3.614778893845232 0.227869664151678 )
( 17.267560957029502 3.7142888859105847 0.2385831766270216 )
( 17.279220883155567 3.813708787535238 0.2488620714938693 )
( 17.146465230260265 2.000754715750892 -0.0051976800057772 )
( 17.10719481491442 2.0734776664784107 0.0035021657222636 )
( 17.074405740743323 2.2164971811838137 0.0230791374887703 )
( 17.039377083495143 2.3659459787505788 0.0462495068471371 )
( 16.999872400786256 2.473606386546347 0.0652530950199111 )
( 16.965689840439847 2.576937282849114 0.0839101796166979 )
( 16.936115523609434 2.681370143392087 0.1019784841968519 )
( 16.90001354829053 2.786189114461079 0.1198356901755788 )
( 16.868014645082756 2.893940482934956 0.1382967210401391 )
( 16.83988449347972 3.009759468231553 0.1559848646010465 )
( 16.809262810481354 3.1313396078343323 0.1732466738063271 )
( 16.77854972683349 3.261467487079432 0.1902114788919805 )
( 16.749695657903956 3.3959077148321475 0.2062501338853963 )
( 16.725588882952604 3.525337055198801 0.2199125900248183 )
( 16.705879357941612 3.6444898145712736 0.2304907629443077 )
( 16.690211747325037 3.75089204859448 0.2387934717644378 )
( 16.67392097004746 3.8469761820605393 0.2446779772415638 )
( 16.657314726332846 3.9438223676183215 0.2490159111526692 )
( 16.649791904139743 4.044733586249151 0.252330762873632 )
( 17.000609252061647 2.0191680408401176 0.0012793813065561 )
( 16.938433384943636 2.09756964655984 0.0149899066499634 )
( 16.878192238692506 2.24586270276772 0.0392348182597786 )
( 16.81124290986555 2.3979458206081663 0.0663052517707621 )
( 16.741596703571943 2.5098111724528747 0.0886541399316588 )
( 16.679832269673163 2.6178621814669287 0.1089242734311668 )
( 16.618263261451585 2.731602027639354 0.1283888967674293 )
( 16.553968688621744 2.8479499548035974 0.1460468371209092 )
( 16.497972619726102 2.96898728930739 0.1628475880505966 )
( 16.44687626443806 3.0995394246512133 0.1779724129772408 )
( 16.392997182875312 3.2383212909742696 0.1906815647244017 )
( 16.345113371251525 3.3836489114196238 0.2018356985480571 )
( 16.303735385544975 3.52937443419906 0.2099126682572371 )
( 16.262486346984844 3.668936519927782 0.2149711272231873 )
( 16.22335247135795 3.7899408850636975 0.2168640084785041 )
( 16.188635943610937 3.894037106486573 0.2167574764245617 )
( 16.154833896102375 3.9888170434093766 0.2149445221115367 )
( 16.11923597271178 4.085101813387145 0.2113333759153992 )
( 16.08793186807843 4.1923757285526895 0.2072172641417294 )
( 16.86071742490752 2.020989146764197 0.0133378858075568 )
( 16.7820164222509 2.1041835015546706 0.0323682675428162 )
( 16.69342640266536 2.256972736029363 0.0606446563628079 )
( 16.596279028501733 2.4071065947529364 0.0883830258331619 )
( 16.503492182043235 2.5201279578936644 0.1104545168464934 )
( 16.417457410475905 2.632656008540521 0.1294053434397022 )
( 16.329625620213765 2.75403714186808 0.1461142585772216 )
( 16.243852158591434 2.87906533223708 0.1603860876748271 )
( 16.167953905554313 3.007588394901452 0.1715941169925 )
( 16.094509730482798 3.146905048287248 0.1796590003238759 )
( 16.020267196204575 3.300763628979793 0.1851635190546226 )
( 15.951615371972936 3.4592136231736896 0.1877802798231803 )
( 15.887318807138348 3.6128516268440416 0.1867082936991118 )
( 15.823299519930725 3.7563076706992895 0.1833457028031504 )
( 15.759884389242778 3.874537980848967 0.1779291487956525 )
( 15.698926123531658 3.980973695656195 0.1716611853863327 )
( 15.640896166694256 4.082983579225677 0.1645490341702038 )
( 15.58366734564271 4.185474411598199 0.1564255300768845 )
( 15.526848889651635 4.300800211786107 0.1478512620457346 )
( 16.732020314692576 2.0052956762412792 0.029652929686649 )
( 16.63603791219982 2.0928778111355784 0.0520570638076823 )
( 16.51762060211875 2.251957647386225 0.0824638629923624 )
( 16.396343103287627 2.400026838580478 0.1083373162052743 )
( 16.28582542063911 2.513798187940982 0.1270367548708437 )
( 16.181376586240138 2.630962538287924 0.1426004577085344 )
( 16.077850873878948 2.7551178299162618 0.1542540480703479 )
( 15.97284614445422 2.8840854467325885 0.162729004308481 )
( 15.869608160555732 3.0198380494839725 0.1672740978619407 )
( 15.76965058550018 3.172786272513937 0.1680014091117778 )
( 15.674939279822636 3.33554203728512 0.1659379294414276 )
( 15.580059817451849 3.499005915135577 0.1604837930103514 )
( 15.489211328578453 3.658168118829615 0.1525957601023615 )
( 15.402310096801056 3.802360106003305 0.1437904829462604 )
( 15.313978362089356 3.9225241730577047 0.1342121266609673 )
( 15.231729499298453 4.028747680916115 0.1248549674557388 )
( 15.151051757027268 4.131854332619102 0.1153858630425789 )
( 15.069753223722348 4.236723538449677 0.106034078088667 )
( 14.988674695309788 4.356022828140624 0.0965630686863263 )
( 16.607364592969272 1.976722880321426 0.0485321848254938 )
( 16.494001573590307 2.069915696279136 0.0715945096679337 )
( 16.352508046124516 2.232800810799339 0.0996067602850889 )
( 16.212728193391566 2.3767125759865637 0.1220503818068515 )
( 16.08697392745039 2.4905488206539705 0.1367540431301268 )
( 15.962686027714206 2.608924752750424 0.1474567387219589 )
( 15.840134620660354 2.736733023471429 0.1540204225276512 )
( 15.716368981555563 2.871670913712906 0.1559448420407519 )
( 15.58895517480175 3.01266676910302 0.153914734217669 )
( 15.46861267098948 3.1721966182069985 0.1487139241767282 )
( 15.3489989645536 3.340990551556193 0.1405398934974618 )
( 15.225172753753306 3.510167647482562 0.1299373564289051 )
( 15.109138307645448 3.66918553916972 0.1186415546232306 )
( 14.997705685106876 3.8108251562157713 0.1077203266191723 )
( 14.885080770985592 3.935128611786092 0.0967194522634553 )
( 14.77868200882694 4.039757373975924 0.0864805752262487 )
( 14.675553367665438 4.140819025892848 0.0771327722540527 )
( 14.569991948377629 4.250381467196111 0.0677130877073283 )
( 14.464715450066464 4.373469147563468 0.0581826180969304 )
( 16.492758717230306 1.940190039055984 0.0659416027399745 )
( 16.362874707038795 2.034071975957003 0.08792406065211 )
( 16.201955815583734 2.196787427311635 0.1120204623641692 )
( 16.044666951978453 2.338066404988848 0.1299238773064334 )
( 15.90147095372162 2.4529214937269344 0.1401709853114277 )
( 15.758689562874784 2.575525368565478 0.1456303555355809 )
( 15.61504469792104 2.7089406709025248 0.146306602838862 )
( 15.471931224909094 2.845062569135167 0.142965116354923 )
( 15.321677574258956 2.988436117652677 0.1360001970975987 )
( 15.177586164512457 3.154307643016871 0.1264563201099991 )
( 15.02987316495884 3.3273931188254764 0.1145235531774417 )
( 14.88126122788442 3.500505525570837 0.101757158341506 )
( 14.740191851204957 3.6606417236585274 0.0898758026357895 )
( 14.599995878254523 3.79684964095636 0.0782241412147909 )
( 14.468602447483882 3.9149535935869535 0.0673775689405312 )
( 14.3400922732801 4.019789317212442 0.0573193759083703 )
( 14.213649909071652 4.124647181049556 0.0480192870875437 )
( 14.08658752078313 4.240284035620237 0.0386682801773363 )
( 13.960083734793232 4.368392856583719 0.0293989023967869 )
( 16.38743416921337 1.890843378232577 0.080431973203693 )
( 16.240280133000823 1.9813240877983147 0.0998048228564723 )
( 16.059813637207583 2.1441654208780005 0.1197869253801762 )
( 15.88775190846296 2.2851347788919334 0.1332136518608119 )
( 15.724634793237048 2.405432643082293 0.1389562885222583 )
( 15.565675995324614 2.5301620850737088 0.1393529387577467 )
( 15.405072507800927 2.6628794278181243 0.1349978896551011 )
( 15.242656656053002 2.8059018196937617 0.1280160533123755 )
( 15.072589656204766 2.956269069263663 0.117676360017296 )
( 14.895378475146815 3.121745478008941 0.1048603280003414 )
( 14.720961454500127 3.29724259724866 0.0914651790283179 )
( 14.552456674744493 3.469589114392382 0.0784729737415543 )
( 14.383235102820402 3.629125208954055 0.0663330802036252 )
( 14.219028680684117 3.764407421932929 0.0546845821693727 )
( 14.070207058832684 3.878275583984224 0.044395052093153 )
( 13.920771856168734 3.9852156623745376 0.0343640639409342 )
( 13.7717225856888 4.092200128799783 0.0250474837944476 )
( 13.622867936317556 4.210115983840694 0.016451470854784 )
( 13.472763475025792 4.343065293198338 0.0081446721915567 )
( 16.284225864265128 1.8374487934042532 0.0921525743909041 )
( 16.119816346829257 1.9316737046413384 0.1084927972143377 )
( 15.9227470567345 2.092978168329242 0.1238069334385569 )
( 15.737739810758272 2.228693815130638 0.1321370859478841 )
( 15.55967791516907 2.3541544234417677 0.1336924208664406 )
( 15.38443283938911 2.476622123747463 0.129900662564871 )
( 15.202880842057455 2.6043927368281405 0.1218294320979907 )
( 15.01433750960312 2.749418186730839 0.111157877064938 )
( 14.825507425572264 2.901050011030273 0.0987655616901684 )
( 14.626774792241829 3.06765282290829 0.085384696107983 )
( 14.429005321431898 3.24981558102138 0.0718182135870795 )
( 14.238150542097202 3.425508147580816 0.0591947993955318 )
( 14.047655225972443 3.580359849467796 0.0472198736118807 )
( 13.866549128408655 3.715129368700113 0.0360049972899698 )
( 13.6952190145108 3.82914099377376 0.0261002746854491 )
( 13.522614880945216 3.934528252638578 0.0167600172376077 )
( 13.348459659539218 4.041376541287668 0.0081909663132728 )
( 13.176787727599091 4.160371649429291 1.4450558430844402e-05 )
( 13.006047005950997 4.299458471213391 -0.0083817913107799 )
( 16.18828748913009 1.7842480544896633 0.0999989117694128 )
( 16.0110991098863 1.883337344431088 0.1129369866339607 )
( 15.79345375151494 2.04052513164222 0.1241781246090466 )
( 15.597095051147743 2.1692912733133185 0.1277014343224666 )
( 15.405845139078552 2.292491865668948 0.1253676545586808 )
( 15.210216424035863 2.414161986824356 0.1185493347931688 )
( 15.008944081813077 2.53804620950188 0.1079521069385921 )
( 14.8020399556876 2.677192871029778 0.0952479617187013 )
( 14.591320053790543 2.833418986294683 0.0820413801701912 )
( 14.375953913303086 3.003959763877967 0.0690969040221703 )
( 14.157197212987434 3.186224044233485 0.0554850628841481 )
( 13.938848437295952 3.367715079285261 0.042710252860616 )
( 13.733501318037847 3.520112091460794 0.031639716356121 )
( 13.536081797027396 3.653618703012099 0.0211306430852904 )
( 13.338186972903827 3.76873037932154 0.0116121782726424 )
( 13.139814715795344 3.871988057184653 0.0026522960789123 )
( 12.943271913480489 3.9799795364205455 -0.0060203043682589 )
( 12.753916611076642 4.102714498738558 -0.0147452328879008 )
( 12.563417989114 4.249508757772446 -0.0236065380086771 )
( 16.095389465236163 1.7256040566506416 0.1042385889394213 )
( 15.903557218106862 1.8276798068539608 0.1136887058615046 )
( 15.668970443164229 1.9842184950887372 0.1211658165263251 )
( 15.462177628501502 2.105463898505117 0.1210939232327254 )
( 15.256121727581128 2.2212589215441376 0.1157194577924918 )
( 15.042037336267343 2.342944772457504 0.1066138812364206 )
( 14.827823939218025 2.4719422688554094 0.0948379159666961 )
( 14.603846048585693 2.61221436641387 0.0816442929782442 )
( 14.373531208099756 2.7704213400783133 0.0678760393780057 )
( 14.138784479575516 2.9396171772063977 0.0545304314875542 )
( 13.900123319207784 3.117579883364196 0.0415851458119526 )
( 13.660594386985366 3.2939818010077198 0.0295455912419007 )
( 13.432566696016991 3.449274823063155 0.0186999060656563 )
( 13.21216849607912 3.588207390344946 0.0081214811739145 )
( 12.989939225067891 3.702416392462793 -0.0014601679440919 )
( 12.773060523128112 3.801941479949072 -0.0105475123304839 )
( 12.56254785766612 3.911179522234933 -0.0195198413188473 )
( 12.355757914377792 4.043651501343602 -0.0282910965600911 )
( 12.145155581682214 4.200763641932609 -0.0362213020598276 )
( 16.00389240291846 1.6571551530209163 0.1053947394355261 )
( 15.797846110745136 1.7613428439100334 0.1116152235668568 )
( 15.554331230894842 1.9199195377081464 0.115576152386407 )
( 15.334131133737229 2.0408890235386936 0.1133967231153182 )
( 15.114996286334426 2.157772428225833 0.1062075833373744 )
( 14.887784947970024 2.2794993582651 0.095273846566396 )
( 14.658547151456476 2.408489597731727 0.082604690162588 )
( 14.41509262387777 2.5457724451839945 0.0690928815055051 )
( 14.165700113082254 2.6984047979122625 0.0553059190303366 )
( 13.915309731521464 2.86911824181683 0.0424561474997824 )
( 13.65538114954736 3.051786154961659 0.0300239226771928 )
( 13.397142862658978 3.2238722516693787 0.018171499423205 )
( 13.14374070766507 3.3780727590447968 0.007413431414781 )
( 12.895099266152393 3.515621272196045 -0.0034435741968843 )
( 12.658690390998752 3.6234509245747217 -0.0134473329391326 )
( 12.432600085088804 3.724167964544177 -0.0221695136217485 )
( 12.205955425953164 3.8400664577663903 -0.0304210131561862 )
( 11.97656476774451 3.979974911431262 -0.0380272783221896 )
( 11.737598864283587 4.1508044162630044 -0.0441829251220753 )
( 15.917937726746857 1.5821380446227888 0.1034769265112924 )
( 15.704267542126807 1.689772377917351 0.1071165845169963 )
( 15.447839327008449 1.849606433526738 0.1082664206330547 )
( 15.214818998930769 1.971886894994782 0.1041128903175844 )
( 14.981698399405069 2.0900186416758006 0.0957955903786839 )
( 14.744981799658223 2.2072704610411606 0.0841508173194651 )
( 14.501258553294848 2.3334551860443526 0.0714547870843196 )
( 14.247492524512673 2.469545990193582 0.0587177261983437 )
( 13.979682212249465 2.618249724376005 0.0454860682030138 )
( 13.707157168234806 2.7892365400058723 0.0325425890671864 )
( 13.426160248622926 2.9742068492265963 0.0196761046469611 )
( 13.143532841868904 3.15075309985647 0.0076752031528031 )
( 12.869105904169368 3.306569695134646 -0.0028715289774756 )
( 12.605478414261068 3.434656492985643 -0.0133867759189507 )
( 12.35564640058738 3.538248879861544 -0.0229387692984008 )
( 12.110217255434154 3.64685598312917 -0.0310878476700912 )
( 11.86216129746747 3.7758601694530576 -0.0387442387381968 )
( 11.603998098573644 3.918552523111305 -0.0448328142468854 )
( 11.327494824019658 4.0945711964605325 -0.0494005503872751 )
( 15.837268890108552 1.5104001676832326 0.0992421039156759 )
( 15.61293904937728 1.6219005604678434 0.1009326485975483 )
( 15.336224892785037 1.7835338630050757 0.1002650068140898 )
( 15.09349367151414 1.8992068184635087 0.0939473013205008 )
( 14.85347430341847 2.0129604370802223 0.0852456362731979 )
( 14.609839632621732 2.1285433238465465 0.0741069359492795 )
( 14.352100111143413 2.2513501276616936 0.061634963999806 )
( 14.082603758876148 2.3880802313827902 0.0494233963866508 )
( 13.802496625172822 2.535304619632677 0.0367806498742226 )
( 13.510831348143434 2.70208199395757 0.0235406093536032 )
( 13.205421086335091 2.8879592461413828 0.0101738634391099 )
( 12.897733091643262 3.064633712943437 -0.0015116340365076 )
( 12.60244626487584 3.2224169210715714 -0.0119747958916513 )
( 12.32954152783961 3.3474019595476463 -0.022101330977368 )
( 12.067326492268782 3.451807695730384 -0.030689863903326 )
( 11.800845912810876 3.565999567133312 -0.0382639440101 )
( 11.522760478292229 3.700850744982587 -0.0449681479390652 )
( 11.229501731853253 3.855480861267237 -0.0498156562139142 )
( 10.931803905411115 4.052745276218645 -0.0549161536458619 )
( 15.759760102918664 1.4425673678275135 0.0931194493021881 )
( 15.524940736905522 1.5554453914355355 0.0930590378683847 )
( 15.235516066388705 1.7154786486247922 0.091558332525381 )
( 14.983037688712288 1.823055264435429 0.0842316484984998 )
( 14.736658110078766 1.928536052928978 0.0751917620643917 )
( 14.484074346979378 2.049420331403333 0.0650935247531342 )
( 14.214855478572987 2.167368460297093 0.0531151062436584 )
( 13.927023040317012 2.2962246476636667 0.0407526316658116 )
( 13.62979382934395 2.447404560892712 0.0284218554842339 )
( 13.320456668722011 2.6104591379266497 0.0154774025376283 )
( 12.987869067558805 2.7998121099422875 0.0023045979867853 )
( 12.654556981850224 2.9809839165928773 -0.0098481889049688 )
( 12.350160605978218 3.1311577828816466 -0.0201305360840697 )
( 12.071182890958212 3.2534843271981817 -0.0285865805745107 )
( 11.7930174199105 3.363747642940252 -0.0366229518368881 )
( 11.502077333080925 3.482912598005084 -0.0439851952897585 )
( 11.190366812773348 3.621566698819792 -0.0487544711931667 )
( 10.866320954373036 3.795057415818389 -0.0545606582563241 )
( 10.57437785631415 4.037937317890816 -0.0631576450613445 )
( 15.686611893761023 1.3764393741502856 0.0858559664217289 )
( 15.43914352682587 1.4863355405611458 0.084216199890914 )
( 15.14235056011458 1.6459100159161864 0.0824856748788544 )
( 14.887359764735187 1.7502170968061048 0.0752589180997827 )
( 14.631485277327965 1.851762906884792 0.0663036144880196 )
( 14.36337072229307 1.969511309250504 0.0564219524243767 )
( 14.08181587297197 2.080370097529641 0.0447479460511442 )
( 13.78782622333794 2.2070053422002376 0.0329298491230897 )
( 13.472337316761578 2.359571082894629 0.0207409003494087 )
( 13.13875267747576 2.5160702561650767 0.0077779383210043 )
( 12.794220677399691 2.700161746657416 -0.0043237170455652 )
( 12.443223893863667 2.893585916570955 -0.0160382272238443 )
( 12.126144177663852 3.04215828351434 -0.0256674733030296 )
( 11.83115331186514 3.1582510126263217 -0.0333268256238051 )
( 11.526777989119172 3.273479697875575 -0.0418232033717777 )
( 11.201191895084165 3.3940356813280865 -0.0487554694616417 )
( 10.862095135741187 3.545003392272416 -0.0542499833036332 )
( 10.534768377037866 3.749067331759604 -0.0629747815704332 )
( 10.266364665197775 4.045067565811077 -0.0723224341971428 )
( 15.613796663362605 1.3107110161085596 0.0775529761780968 )
( 15.35844128551925 1.417419487188741 0.0754058893320608 )
( 15.054977561354471 1.5718168776823274 0.0734602416629165 )
( 14.799208018775431 1.6725653869731607 0.066445512036145 )
( 14.535924626350328 1.7769212491063442 0.0581784081269631 )
( 14.253994617265302 1.8902281085125747 0.0487948565667229 )
( 13.963308849379896 1.9899613283806104 0.0372848004023383 )
( 13.657304973595563 2.1179326995331933 0.025893518929382 )
( 13.322955188265048 2.2723376246697278 0.014023139360384 )
( 12.971254952137828 2.430650829835673 0.0015693580489301 )
( 12.607542318047065 2.604941379958341 -0.0099789742588789 )
( 12.242622971561222 2.784739750322688 -0.0207338287389017 )
( 11.911866815438088 2.936869556051229 -0.0298585648533738 )
( 11.592240249715424 3.060131019790673 -0.0379764222528508 )
( 11.25984528706678 3.1707170561717866 -0.0461682047844035 )
( 10.90941540310475 3.295504854165264 -0.0530590299213824 )
( 10.553531499171688 3.46555520054588 -0.0611081021893295 )
( 10.242725931574478 3.7171272223205065 -0.0718099893360421 )
( 9.969570315386136 4.067099824671042 -0.0805028627967013 )
( 15.54611039249332 1.243006603133839 0.068258222177816 )
( 15.28577544370204 1.3457969981809244 0.0663796604610522 )
( 14.973058336009728 1.4913600220729808 0.064389160064127 )
( 14.715775729629192 1.592540174407314 0.0580085073816269 )
( 14.445371944516646 1.694678172749495 0.0505523282189869 )
( 14.150189864894156 1.8059381074427356 0.0416326173230112 )
( 13.8584271991461 1.9058426692478223 0.0307555766458255 )
( 13.538081052099235 2.0237838858564308 0.0194557082696394 )
( 13.182131869573997 2.176200021247175 0.0074534225735246 )
( 12.810574712759328 2.339973340769012 -0.004253991354968 )
( 12.42174766463348 2.513803296241831 -0.0153923337976094 )
( 12.05108752286879 2.680911807583401 -0.0259809462106913 )
( 11.701568037562938 2.825182880726822 -0.0353571543781476 )
( 11.35355666178609 2.9525182269520776 -0.0428156251632164 )
( 11.003801201221735 3.068687312692247 -0.0493594301843563 )
( 10.638851283651304 3.209387684674786 -0.0567290652301799 )
( 10.27709906536924 3.4076017173618167 -0.0672814686209214 )
( 9.97066184697542 3.700264845374076 -0.0789211861965204 )
( 9.600506427428671 4.050435320825407 -0.0879846712653368 )
( 15.487491841105184 1.1754405324348565 0.0585083927366303 )
( 15.217238580475255 1.2696223826613022 0.0565734090108449 )
( 14.89735063277372 1.4099275711197254 0.0550970077373372 )
( 14.635489832887943 1.511159868331266 0.050026621930353 )
( 14.358743254195852 1.6122969493843855 0.0433878281923209 )
( 14.054057509770937 1.7249507310696308 0.0347696857462315 )
( 13.750798023075124 1.8232100892554823 0.024923400653602 )
( 13.424021657114654 1.9315967621559529 0.0141967891692841 )
( 13.05683805076842 2.075307637674616 0.0023827931367856 )
( 12.663397386976175 2.232963207896522 -0.0094495080941897 )
( 12.254940281544656 2.4124426361845406 -0.020967870123175 )
( 11.871794091378757 2.5838011501550286 -0.0317649087704748 )
( 11.49936291761737 2.7199189729204 -0.0410501737035209 )
( 11.130740912914412 2.8404374724140062 -0.0480289269865105 )
( 10.756736102319676 2.975034122224021 -0.0533737673051103 )
( 10.378629024647124 3.133832103726097 -0.0611282580721978 )
( 10.02389424431572 3.360928198650873 -0.0739835969745062 )
( 9.663833569107648 3.68056662893215 -0.0838473351745394 )
( 9.116595031171755 3.963011164299453 -0.0915425206235672 )
( 15.429514361987476 1.1037006351120004 0.048027989016316 )
( 15.156880193917946 1.1974374593460828 0.0470063734340523 )
( 14.835426788712866 1.331426202339859 0.0466179889304246 )
( 14.563669611799384 1.4231241535997876 0.0424033647154688 )
( 14.279908936571193 1.5254150285240222 0.036419424391386 )
( 13.969709358876443 1.6415847802381758 0.0285787052139985 )
( 13.653212361524249 1.7343725512725383 0.0198534078987896 )
( 13.320698540638604 1.8361395269995884 0.0098065065763494 )
( 12.934864274634268 1.9764680475560152 -0.0016633850970051 )
( 12.52369068086389 2.1312995409202 -0.0139008280982734 )
( 12.100289468370834 2.306894638155808 -0.0261516727474389 )
( 11.69020936394148 2.478548812329566 -0.037045973206515 )
( 11.305963743099392 2.6202840709737565 -0.0451051118129456 )
( 10.930504614919204 2.7390875167982287 -0.0519298887648209 )
( 10.532860123632478 2.8826401401282045 -0.0589148175985541 )
( 10.134867380278358 3.0619649855077857 -0.0689554117915717 )
( 9.776033413998231 3.3139789217449094 -0.080021795536894 )
( 9.323048018475026 3.6360573490209807 -0.0877150045933787 )
( 8.502843469194325 3.7870860523922265 -0.0927448133893478 )
( 15.373768097151403 1.0311182889501442 0.0372481971670582 )
( 15.10087848190282 1.1269410414050682 0.0379985729929161 )
( 14.777313993162188 1.2579516743703965 0.0394284833363963 )
( 14.501400731569044 1.3451756321748318 0.0359498472873308 )
( 14.207520647602044 1.4431117510503075 0.0307416684549958 )
( 13.883904683251137 1.5471430010510296 0.0233203155795541 )
( 13.558335955912051 1.6381475443316558 0.0148542710756154 )
( 13.219747144687506 1.7368783260007268 0.0048155539394915 )
( 12.808913099610004 1.8746392618042664 -0.0068064826896652 )
( 12.381091434445016 2.034130548178205 -0.0186245633530771 )
( 11.9550136316298 2.202905969354122 -0.0305163592601256 )
( 11.53353771536662 2.374290151964378 -0.0407987764577678 )
( 11.134178329795208 2.523368265721208 -0.0481201729305867 )
( 10.7322840335014 2.641934200354489 -0.0545725995895391 )
( 10.323384101881471 2.786191259665725 -0.0623785814252588 )
( 9.916840588061808 2.9854718712120456 -0.074066978135704 )
( 9.503299677514455 3.2628263708885497 -0.0848730820907192 )
( 8.974257227952975 3.5741515518623164 -0.093620259360974 )
( 7.710911744959466 3.4867631941433217 -0.0901368632734395 )
( 15.322032179898816 0.96655330106976 0.0269402125660406 )
( 15.04440411171715 1.0582275164011343 0.0291181033893594 )
( 14.720027092004749 1.1849954753263896 0.0323803479414498 )
( 14.44419113288828 1.2722398058045166 0.0303404149084941 )
( 14.14088945159933 1.3631235128445591 0.0257795202092462 )
( 13.810780846022368 1.4548528579878823 0.018818035969394 )
( 13.476984359046616 1.549036927331111 0.0110188217950644 )
( 13.121166301146513 1.6528574463812309 0.001024940771713 )
( 12.690786624845275 1.780905451736701 -0.0114530620696159 )
( 12.241908945572334 1.938133606776497 -0.0231491845915133 )
( 11.809605844481943 2.0994779934334327 -0.0339133899877576 )
( 11.388325721294304 2.256851677516471 -0.0438729193504851 )
( 10.97230105608528 2.402484794554189 -0.0513336035727312 )
( 10.543840231304138 2.531760576448922 -0.0580352790819246 )
( 10.117682819231892 2.6857045975111977 -0.0647002276304335 )
( 9.69822928005645 2.9014453314813826 -0.0745641135817523 )
( 9.208440254083598 3.1923493099246487 -0.0863888259586739 )
( 8.467905135767984 3.415011022047502 -0.0925781532594375 )
( 6.929635441413556 3.1486478166331104 -0.0822208156159629 )
( 15.277091306259088 0.9000939830872094 0.0172591876976906 )
( 14.995659269134396 0.9905309740231484 0.0209463874590422 )
( 14.6655976617234 1.1135866061473818 0.0262228926553691 )
( 14.387738332584878 1.1940182607444516 0.0257220050109005 )
( 14.079196883576234 1.2839740947523142 0.0218375627646887 )
( 13.74937148837103 1.3786203167290825 0.0146792579277518 )
( 13.412833268832753 1.4712467073949036 0.0072036031167095 )
( 13.035018466450198 1.569489486071055 -0.0023200794445803 )
( 12.59253016202458 1.693503397322236 -0.0150209723015316 )
( 12.135477969008454 1.84570691062585 -0.0263301394011177 )
( 11.685534053360566 2.0007973504997394 -0.0368307009398581 )
( 11.240126179799669 2.144140029722018 -0.0471507215746482 )
( 10.804141101823776 2.278566768921757 -0.0556800346475229 )
( 10.361614196560348 2.413731204046928 -0.0639408199224996 )
( 9.923456433852792 2.585570921050512 -0.0708678446123967 )
( 9.472501437402675 2.830113174608043 -0.0799406799527342 )
( 8.917888519269015 3.112041395779213 -0.0884944697148635 )
( 7.901173378024799 3.18017441254211 -0.0873141886677954 )
( 6.246823641544436 2.8264844731846908 -0.0764116023202735 )
( 15.237385611732698 0.8313745560127452 0.0081776793369726 )
( 14.95732751664872 0.9218711419729884 0.0138662507378148 )
( 14.61988419585165 1.0434030654521838 0.0213006822649546 )
( 14.335409175082068 1.1176756057293664 0.0219482080007668 )
( 14.0202698273381 1.202200671699326 0.0180449905975504 )
( 13.686802582355542 1.2963978197789958 0.0112196835395858 )
( 13.3442402023079 1.3768444721151152 0.0035895059811149 )
( 12.954371671187417 1.4715961841053158 -0.005912987975522 )
( 12.511656390152924 1.605237855082344 -0.0178783479279381 )
( 12.047489519878956 1.7523166360017908 -0.0294984065240817 )
( 11.57482525369041 1.905469920048975 -0.0411640402410931 )
( 11.1048019701053 2.036854764662227 -0.0512214755348383 )
( 10.64995575486576 2.160755759483099 -0.0605825180401712 )
( 10.1834035427451 2.29979294340538 -0.069720504043565 )
( 9.731227116096798 2.482055926084987 -0.0770344421419142 )
( 9.2264892381062 2.7425124948889605 -0.086735025082483 )
( 8.587206173748887 2.9920045677073066 -0.0932354136684405 )
( 7.413838143980236 2.9423894846173333 -0.0859160150128849 )
( 5.605913682262628 2.493940939503604 -0.0711484761260567 )
( 15.20306663971536 0.7724455678473772 0.0006525436342733 )
( 14.922246901975846 0.8575696029871848 0.008213675269134 )
( 14.58009064345968 0.9714855138002446 0.0167049010157553 )
( 14.289565360098724 1.044406140750887 0.0175402929207241 )
( 13.968939780047217 1.1209897816459613 0.0137811460649442 )
( 13.633692038475166 1.2049004925109237 0.0080906204043226 )
( 13.277150596758348 1.2785169521085058 0.000498275868048 )
( 12.87795785138882 1.379895856875433 -0.0088079694574988 )