/*--------------------------------*- C++ -*----------------------------------*\
| =========                 |                                                 |
| \\      /  F ield         | OpenFOAM: The Open Source CFD Toolbox           |
|  \\    /   O peration     | Version:  2112                                  |
|   \\  /    A nd           | Website:  www.openfoam.com                      |
|    \\/     M anipulation  |                                                 |
\*---------------------------------------------------------------------------*/
FoamFile
{
    version     2.0;
    format      ascii;
    arch        "LSB;label=32;scalar=64";
    class       volScalarField;
    location    "0.0041";
    object      k_LES;
}
// * * * * * * * * * * * * * * * * * * * * * * * * * * * * * * * * * * * * * // 
 
dimensions      [0 2 -2 0 0 0 0];
 
internalField   nonuniform List<scalar> 
13597
(
0.1825363843589581
0.1821417509532564
0.1837099398921308
0.1882120603634275
0.193774207383399
0.1996602280767309
0.2061970249352176
0.2135881657896904
0.2217265636486756
0.2300314788820095
0.2392909724597976
0.2490210055272275
0.2578622031861813
0.2663043461383775
0.2741521887564558
0.2808461777347888
0.2865819942660045
0.2912518264827463
0.2957406181001646
0.1714810141259925
0.1719756939504669
0.1779091535301548
0.189935125633366
0.2007128644447002
0.2111310884133362
0.2225080985893867
0.2342750238654556
0.2458789632586833
0.2568200048050136
0.2680059502784963
0.278610489435657
0.2876415493067302
0.2957093459341622
0.3022461688923555
0.3071264141521873
0.3103263326467451
0.3125705281015208
0.3147387115850924
0.1652904703400304
0.168730069300331
0.1808141524941039
0.1992014537626279
0.2139361931753471
0.2279302373251561
0.2415006069168054
0.2543753437944066
0.2664425450324721
0.2770387134642066
0.2858987527317983
0.2933726587590429
0.2992369069132601
0.3030550471148546
0.305135988367359
0.3059043811408367
0.305231152327384
0.3034921898173705
0.3010057607688339
0.165088443091495
0.1725410298481523
0.1889591504305419
0.2106552250984556
0.2279199806040855
0.2431630981546693
0.2569094646832912
0.2692432865049807
0.2795373341318885
0.2878661573960559
0.2925879004161458
0.2950866528451781
0.2955468382903038
0.2941886142029628
0.2921815502311866
0.2894044286643051
0.2857431024834642
0.2817996680010977
0.2773312305549303
0.1694275353395496
0.1797384456630995
0.1996340306724886
0.2234797814713853
0.2417883431099006
0.2575028808961669
0.2709167640746557
0.2818358964819829
0.2888986669744839
0.2926694289899897
0.2936669014632078
0.2925368992943658
0.2895358005575771
0.2856772608395443
0.281988548210258
0.2781982175386867
0.2738301019175799
0.2697447843748541
0.2655194487007081
0.1755815748416176
0.1879227979695915
0.211458037648141
0.2372734691463856
0.2556602970140703
0.2713299410555321
0.2836731146288642
0.2920798986406506
0.2965603012923153
0.2973249741210501
0.2955908462068196
0.2917482766436904
0.2867940682711432
0.2817612349764643
0.2774775365483972
0.2739243897257283
0.2705591485458915
0.2675907929679209
0.2651368171337138
0.1823927868862987
0.1974918456457305
0.2242364972115761
0.2509884068171504
0.2696604231328519
0.2846248000329559
0.2948377149604506
0.3004546055037473
0.3028267706544747
0.3012628089596547
0.2965077220935448
0.2905624445670633
0.2849690509824525
0.2801831075316815
0.2764559589790694
0.2742769922632998
0.2730780216364891
0.2726333086035689
0.2733667695468005
0.1902498302609908
0.2078070681882759
0.2374698656466465
0.2648542352767769
0.2831673778482548
0.2963959062287659
0.3042326719296209
0.3072340903564734
0.3066763474260773
0.3019863108547735
0.2949420407134996
0.2884547750059638
0.2837227302212349
0.2805659759105239
0.2788921123391686
0.2790892505792854
0.2806215421367897
0.2834319960297103
0.2877273076490949
0.1981861951881878
0.2184114459815271
0.2504569955152786
0.2774569572470183
0.2949613179047969
0.3059033989637966
0.3102061644113933
0.3102474786585538
0.3067254384281822
0.3001694530847192
0.2926260911403188
0.2870636807600717
0.2843813819362554
0.2837169366973387
0.2848741053015503
0.2877538628597265
0.2921883621114251
0.2983197848911992
0.3061036353134875
0.2074916154143378
0.2310118803247482
0.2633784178756773
0.2883814398994273
0.3040507350262573
0.3117719095285513
0.3124909036608558
0.3094060027287599
0.3035420402133068
0.2966148176308693
0.2907427671031515
0.2874219828776031
0.287294453795382
0.2894972211508316
0.2936791334530715
0.2996138503549428
0.3074734369327008
0.3171813817885339
0.3286918742886813
0.2180784624930296
0.242589622979191
0.2746370710185079
0.2970256038740128
0.3089614120078893
0.3132595382809697
0.3118748948935914
0.3068124129806601
0.2997257318967125
0.2933855265881879
0.2896697273589674
0.2894042556481681
0.2923440148245322
0.2976716502920893
0.3053647315932848
0.3151376235752848
0.3269141283154231
0.3401373851172865
0.3555409553981784
0.2285714228698017
0.2530197101557792
0.2838503677768097
0.3025553190069074
0.3106552475996824
0.312147534503141
0.308895354085849
0.3027718444436514
0.2958081161039699
0.2911981332723227
0.2901522981200231
0.29332707715413
0.2998009528845238
0.3089463100277155
0.3208652841715094
0.3343709760951349
0.3494989326796383
0.366751304255738
0.3864994208847119
0.2385507901344739
0.262764497425928
0.2904339499888949
0.3052965067212029
0.3103567607798095
0.3090267020001836
0.304120658737286
0.298133336062612
0.2931133643439136
0.2907722684757298
0.2930262300641981
0.2998305567016637
0.3100825576941602
0.3236002060486931
0.3391527083465984
0.3560238410253885
0.3752943078200897
0.3972753877568689
0.4208681860388158
0.2484805224166376
0.2700551210544302
0.2932927082725297
0.3045711409319535
0.3072551885073558
0.3042480601612158
0.2990950401403837
0.2944121944711672
0.2917096171224587
0.2920610130422044
0.2976221729649236
0.3084230125284707
0.3229076053564755
0.3401970272708445
0.3592666004997706
0.3806590277856724
0.4050642234531008
0.4312440434587621
0.4587655602456575
0.2565789973229109
0.2737686609419592
0.2938637276760861
0.3013201455367268
0.3025255703062057
0.299515948998947
0.2948397094623243
0.2916376881941298
0.291211176992293
0.2949333658533644
0.3041904031208949
0.3191985113044011
0.3383288821213339
0.3591178232042317
0.3822369705357868
0.408589012419777
0.4377126486326578
0.4689353278491619
0.5058999635447231
0.2613591589526932
0.2748966934803217
0.2921630197806711
0.2967904925723991
0.2965862560241468
0.2942983164880121
0.2913659631276377
0.2898788779578362
0.2919793928779467
0.2990417731267296
0.3127527745062821
0.3325296808639933
0.3553603449144027
0.3798520067402189
0.4074316133107625
0.4383042227347075
0.4728637721127793
0.5139195193639324
0.5696573144139975
0.2627876426073279
0.2741310585199401
0.2884913232629519
0.29167540258338
0.2908711918075466
0.2891101011709598
0.2881334340951654
0.2891388166279567
0.2938211053200406
0.304591801928161
0.3220176144688205
0.3457924837304135
0.3727762654671998
0.4015130459388363
0.4338185663212127
0.4704109777744859
0.5135001275228311
0.5709825656789297
0.6465872057985673
0.2622978816960573
0.2710554732125007
0.2831636223691214
0.2858052970012884
0.2857322019716568
0.2852652215008777
0.2858466579274826
0.2892571459036437
0.2969671902152099
0.3111563685168558
0.332272189474613
0.3599229287596969
0.3912568109286954
0.4249283128462685
0.4621640914439195
0.505169311225511
0.5625093520786025
0.6402613716039832
0.7174300228773305
0.2606121850329909
0.2669051033388123
0.2772182847049018
0.279988883114296
0.2810580870202322
0.2819854187561392
0.2841601398468734
0.2897544327118706
0.3005287313208762
0.3181656577738466
0.3439080899733871
0.375301187372167
0.4106874177064196
0.449895160873385
0.4927130719946494
0.5459598120888054
0.6222839899378018
0.7183079008115308
0.7753905477701358
0.2568540150012968
0.2610898865222186
0.2709333451726085
0.2745096088577166
0.2769305789255044
0.2792174512767901
0.2831981058147505
0.2912125522973224
0.3048278019627571
0.3259721574134742
0.3561399162893933
0.3913725544144316
0.4308761916069177
0.4745967943985222
0.526816007328447
0.5943900677627154
0.6904380274127372
0.7959336723091688
0.8154449248765298
0.2517635090159959
0.2548590954705844
0.2644167487463839
0.2686609579667979
0.2725163645642013
0.276759245997716
0.2831632486094022
0.2932633148742338
0.3095814058807249
0.333948603132379
0.3683269579460826
0.4089552065679895
0.4525559318592882
0.4997519879329301
0.5624382247776518
0.6496293204046633
0.76494224390987
0.8665732623708553
0.8150321084686796
0.2460952990936916
0.2488714479208131
0.2586100377122587
0.2638829057883795
0.2690195766322513
0.2750152457851285
0.2835434409114563
0.2953950134800217
0.3149257461808964
0.3429852618129305
0.3804614808290038
0.4245688036654714
0.4724014989484765
0.5272468537991545
0.6004799354538921
0.708996136865074
0.8401652686604902
0.9252309736794212
0.7588981751887169
0.2399519842053134
0.2429836219513957
0.2533396723484033
0.2599717814756492
0.266284864309212
0.2739581474617664
0.284485344326068
0.2984566288924948
0.3209864071861171
0.3531727467081834
0.3935291848015014
0.4398859210150583
0.4915029889028743
0.5551788778111911
0.6458724371810576
0.7748072602746139
0.9139318673655784
0.9432580994308788
0.6936744016074353
0.2334533158460082
0.2371046439236308
0.2488130261406839
0.2564698782268546
0.2639876728022608
0.2730072981007752
0.2852788265970282
0.3016549932235403
0.3267794256901217
0.3617728448094315
0.4054487535600153
0.4569158043617513
0.5133680667443953
0.5858201302061963
0.6954292935693707
0.8433845679746349
0.9819798663960366
0.9300522805474412
0.6342314361013554
0.2274371520350843
0.2315489931012678
0.2450166513931798
0.2537427432349539
0.26197872919526
0.2724161371857132
0.2863774987251508
0.3048915398274483
0.3321722027196473
0.3692331649259578
0.4170857289287209
0.473209837627231
0.5345681829180703
0.6211515543519429
0.7457896043203023
0.906151693964392
1.0302707477819557
0.9096287505421432
0.5670009270474176
0.2225954604188429
0.226875896195069
0.2411278778403133
0.2511604424295792
0.2604314833484672
0.272169266843655
0.2879276660803314
0.3084554957531519
0.3375000426521322
0.3776987796555988
0.4288773574881486
0.4878544740616869
0.5558351509212018
0.655627699891478
0.7948561760967365
0.9653587374664324
1.0440991871711272
0.8642172780094771
0.5155254400605381
0.2179515182203898
0.2225993867080832
0.2372175506395765
0.2484586830294239
0.259217062386955
0.2721555269841346
0.2895437931867339
0.3121430782825008
0.3432881548761663
0.3866650364692827
0.4401136867719435
0.5012033756185436
0.5768785889817364
0.6873675963538264
0.8440902270855443
1.0183778639515917
1.0471749020300962
0.8137488096068756
0.4733267103360166
0.2130689463192354
0.2186302530377139
0.2343892135269231
0.2466019229915172
0.2584036606104628
0.2725659850842122
0.2913287439825988
0.3154580395713417
0.3487345056344839
0.3955507280832138
0.4517719627128713
0.5142537187513181
0.5964567457010713
0.7189572986658855
0.8967509025851153
1.0690646475680967
1.0629534062561734
0.7797974091382327
0.4370522469912187
0.2082575983846109
0.2149543470231048
0.2317770793064232
0.245000767948027
0.2578730811432559
0.2729068440507882
0.2927304173027564
0.3184164846288545
0.3540089670142281
0.4035030888155891
0.4613081756905997
0.5279951254231056
0.6216465418282705
0.7531066454864594
0.9427612628265108
1.1067371834222428
1.0635358351924238
0.748900495748269
0.4133680750828122
0.2041709651411998
0.2112589589374036
0.2291100166014703
0.243421076329035
0.2573849550390264
0.27367511015699
0.2942391011486363
0.3214819479837804
0.359494274232172
0.4096413397378289
0.4683799553711975
0.5419920204971952
0.6443049793605254
0.7863602142317347
0.9819212462809844
1.103337943748621
1.022840289981502
0.7186528481065253
0.3997464275876414
0.2006440576623733
0.2078739216858031
0.2268365840228362
0.24216791553528
0.2569231956119261
0.2745482945323323
0.2961777870366868
0.32528823063043
0.3649222636180367
0.4154461068141362
0.4761980716933032
0.5554155338728346
0.6600000067997426
0.8149654775082302
1.0173422569365094
1.0951422494305467
0.9808127872626344
0.6912709273129892
0.3903629369749815
0.1973565030650159
0.2052880247304268
0.2252610112535523
0.241433009689825
0.2567467705578276
0.2749629762864261
0.298057070799363
0.329135283542079
0.3700132089426587
0.4218595620924787
0.4844748409746977
0.5670166080394985
0.6764529919054237
0.8488156494438238
1.0506740226918794
1.1068857626875177
0.9694532707957564
0.6680936860726646
0.3782283800515036
0.194657272086633
0.2032158781161545
0.2235954906084608
0.240783887880069
0.2569524087156712
0.275243119260371
0.2990885445988095
0.3318693999909677
0.3746066475381578
0.4284206942111104
0.4927263123653912
0.5782513745609804
0.6923268438818193
0.877550067604945
1.0823206089599806
1.1246888491825662
0.9691714645448456
0.6521231918616347
0.3646205561073629
0.1923201469610621
0.2014348303117769
0.2219361591155718
0.2397936329786304
0.257098827128197
0.2758699699318152
0.2998235476850903
0.3337997640819727
0.3784087824835382
0.4348889775950911
0.5020186564743044
0.5894091369947377
0.7063022027747601
0.8977932320651489
1.1092652020244882
1.1435579889631275
0.9711623782924348
0.6425769820813176
0.3566851142361428
0.1904390688931187
0.2000933421900428
0.2209203795920439
0.238592994791764
0.2569689934873791
0.2767581830084397
0.300904710033125
0.3354234987500235
0.3812928330910833
0.4398840577870896
0.5094867013621783
0.5987688094719353
0.7212029683666739
0.9187360855079346
1.1277700276431055
1.151941445691367
0.9681622230162824
0.6339266855589646
0.3515657117644038
0.1889690747646926
0.1989137643977294
0.2199180987712453
0.2376311570628691
0.2567205096653314
0.2773433858356155
0.3016533848408891
0.336863046140557
0.3843714863109287
0.4436494104704114
0.5149341507180798
0.6071811954900262
0.7347670817679559
0.934060818458498
1.1417583330629943
1.1590730014008177
0.9629555676146748
0.6242947424721158
0.3453384230846354
0.1875002936636959
0.1977796293570844
0.219147589070206
0.2369047930374134
0.256622837565499
0.2783888321656881
0.3033672968336131
0.3388246084509352
0.3875376254984892
0.4478058453173513
0.5204200016452232
0.6154638615557744
0.746120749876555
0.947208475916008
1.1534712535535072
1.1622608046947107
0.9623514168704884
0.6217841651394672
0.3403276117028834
0.1861943857297571
0.1965696452835698
0.2181640234513776
0.2362437016129689
0.2564747840581854
0.2790267785561805
0.3052586663957624
0.3409338119373918
0.3903863435261243
0.4512923364525981
0.5250877840245404
0.6225707167553378
0.7596893017194799
0.9624052187796036
1.1586210197765276
1.1615134438325387
0.9579087773767346
0.6196237798301522
0.3376442922365062
0.1850804319643471
0.195262258892698
0.2168799411057509
0.2359391283826274
0.2566745706521234
0.2792553280918696
0.30608445823011
0.3424861006334815
0.3930581509313418
0.4540099411449206
0.5288095271645341
0.6282280203498282
0.7738214461343554
0.98076232200848
1.161388387324264
1.157187593443119
0.94897724159114
0.6133575563673355
0.3365358763510093
0.1839045488213991
0.1940279006298689
0.21598613245077
0.2358868305312054
0.2572104207554059
0.2798728825731821
0.3068007564708099
0.3436620226039217
0.3947358103327498
0.4556442476216495
0.531377773475891
0.6327170511161399
0.7818281317305797
0.9938432278294576
1.164932006455382
1.1501093022844937
0.9435746644572338
0.6098129852207489
0.3360809833624505
0.1827440338950768
0.1929290066798762
0.2154297509244059
0.2357452186489648
0.257441335696075
0.2803946730521445
0.3073630265009333
0.3446909955278404
0.3964467829354913
0.4583233062519585
0.5344934071914154
0.6380491637043493
0.7887195359789549
1.0007839094256696
1.1647903277259428
1.141118908903538
0.9357304134073666
0.6053141976257419
0.3358386576703865
0.1820315288788367
0.1923108032495992
0.2152404302080904
0.2357143565316269
0.2571108784387017
0.2806134197757382
0.3080723908003381
0.3459805121441114
0.3989978332645156
0.4625695498157812
0.5385612315611223
0.643255260845145
0.7950526511317954
1.003794182236018
1.1640017542238952
1.1364034612702538
0.926766818284108
0.598190304464944
0.3342902569401662
0.1814756798317255
0.192083559251324
0.2150914499281858
0.235470151247287
0.2569285108046295
0.2808631518187979
0.3089639021612643
0.3469638875036216
0.4000920399313275
0.464911924635302
0.5416267640607869
0.645877531786625
0.7954377747901351
1.0061836100331158
1.16908207329291
1.1349016522350786
0.9184642305944898
0.5912918946823871
0.3305853475178743
0.180895418179835
0.1917147562514237
0.2144912792272671
0.2348359661126328
0.2570813802205307
0.2812274631604043
0.3095044480709308
0.3473821927385941
0.401030085124314
0.4673508547104112
0.5446463842884337
0.6491853114194923
0.7976003906397172
1.0098795147996291
1.1664720643791566
1.1252568388042492
0.9109504851148592
0.5871110092522143
0.3286743265547476
0.232230368852711
0.2291069994546153
0.2231259329134031
0.2163809660462757
0.2125471450940486
0.2101037231434473
0.2081747035747619
0.20651906387272
0.2067294216768911
0.2080874888408447
0.2095069006444866
0.2120893029535808
0.2143610636255874
0.2165479314382934
0.2194210305857116
0.2217642075097605
0.2243008010705229
0.2271507200730657
0.2294326252678773
0.2548524881823907
0.2527266494566659
0.2435048078532421
0.2353285087712429
0.2312295150254435
0.2284513450489194
0.2269748306387045
0.2259517099063859
0.2255925192481366
0.226483723440716
0.2286551208493263
0.2326536613458297
0.2373874877437968
0.2422060576297899
0.2475880788447003
0.2530391248514236
0.2587919688422662
0.2645842360988871
0.268879037527608
0.2681663506498752
0.2640320086996522
0.2516560718606944
0.2425954088118452
0.2379222551647895
0.2351549059958421
0.2338565262443349
0.233493449921802
0.2350369433265136
0.2389468287242934
0.2450014830437942
0.2522123814677552
0.261387458318988
0.2711695347580339
0.2801725929296007
0.2889683432191547
0.296006799475365
0.3017442257662769
0.3066231094932342
0.2732857149438859
0.2658027661041382
0.2514744658703187
0.2423663090358404
0.2376454178649839
0.2358460571785841
0.2369215711868183
0.2399943558777525
0.2452602047563942
0.2528573443673345
0.2634310503298775
0.2746685064210313
0.2874453166733823
0.3000732831187112
0.309662628680416
0.3179878582182875
0.324749024196389
0.3304151342556747
0.3357061356017009
0.2713898620908457
0.2609711558120679
0.2472616558221807
0.2401837048554965
0.2369609551725585
0.2373242630895727
0.2420636632987192
0.2490017551881066
0.2581545812674438
0.2699293264597044
0.2841911452313774
0.298671650972041
0.312995665425877
0.3259454044562003
0.3355596106259604
0.3438226622740712
0.3508061046500044
0.3566068637145809
0.3614347280823267
0.266157126737671
0.254148385251906
0.2423137146065701
0.2382773028730742
0.2379259893236934
0.2418599286735509
0.2494740197348245
0.2597233007495253
0.2724674813114929
0.2871994555662247
0.3033845381346515
0.3193063798872066
0.3339142361986439
0.3460315176445591
0.3556765800172187
0.3632869289409181
0.3685564524662075
0.3726512197156131
0.3758794982195243
0.2609701423514227
0.2483441224675822
0.2382350116016117
0.2378728500255712
0.2413447854453458
0.248176985696691
0.2582765645016704
0.2704532045052186
0.2851789841662562
0.3015752514147737
0.3184710330470746
0.3348669494489599
0.3489050398828311
0.3598523580329843
0.3681275597949526
0.3739903135755752
0.3776591778082897
0.3801837087961187
0.3816235661703574
0.2558050470840678
0.2438760280720036
0.2368696937230135
0.2392145972724861
0.2449992792738099
0.2539002953673602
0.266057490555204
0.2792612859211764
0.2951477294557345
0.3124099557031305
0.3294548956425023
0.3459097184089008
0.3588755556300729
0.3683234867832756
0.3747888739113812
0.3793138902363973
0.3820056772035316
0.3837150935893778
0.384494768034712
0.2522641369740687
0.241598605319099
0.2371368034090505
0.2413483652438144
0.24826568680161
0.2582157202157881
0.2715264839377778
0.2870487938127572
0.303848286810259
0.3211172319338263
0.3381620312209614
0.353466816446439
0.3651146465290512
0.3732259505071915
0.3787562822456778
0.3827158799439845
0.3854741138175168
0.3875547322401376
0.3889040308172602
0.2494601797416085
0.2402867436291438
0.2377212617028015
0.2430107746195942
0.2511501817873747
0.2621453606349655
0.2763618101220791
0.2930054999643015
0.3101693950753232
0.3281981735381974
0.3445667226217038
0.3582814137287553
0.3693150477552595
0.3770939606916312
0.3827087816320966
0.3869978581770781
0.390949948201917
0.394562367221492
0.3974775727165071
0.2468185393280435
0.2394046885819258
0.2386463012383736
0.2446637789273169
0.2536573760648279
0.2659657991591248
0.2806471247148333
0.2974078398127018
0.3150848471616678
0.3329759146783722
0.3488314453925904
0.3623084524160649
0.3733003309834996
0.3816249802524838
0.3884271826360568
0.3940928704001594
0.3997738604207803
0.4052193064822556
0.4103217544965907
0.2456501702794711
0.2392239060304492
0.2395029950253007
0.2456759107697016
0.2550829094296036
0.26853862155058
0.2835742448937845
0.3009299812872587
0.3192514595928512
0.3365972370966393
0.3532288022933091
0.367233642124475
0.3782478941646717
0.3877154577059071
0.3963181314121984
0.4039627910426211
0.4118131044931488
0.419963769997425
0.4283499832210272
0.2447213261105773
0.2384789575228443
0.2394533156507984
0.2459770944069947
0.2562850917414687
0.2704100641752217
0.2859692138874705
0.30345598302714
0.3221509744396657
0.3400975489842178
0.3575171343568867
0.3727778477640587
0.3849843382395305
0.3957333613758865
0.4063143917962841
0.4167208451275545
0.4277113576025962
0.4400256256972019
0.4533308209639966
0.2438011973011596
0.2372650908120361
0.2386244682562205
0.2460842374680881
0.2575114401332607
0.271516116690813
0.2876130349462446
0.30590456347937
0.3252214447541658
0.3440987241458936
0.3621771235388583
0.3784128645267278
0.3929385298630568
0.4056574147321928
0.4189022354346747
0.4335384806003629
0.448662481247637
0.4655348904225022
0.4847496771974826
0.2432538043327881
0.236072382156879
0.2374066100247611
0.2456087933678286
0.2573226135818975
0.2715261366660809
0.2887952811518999
0.308141147703321
0.3284162744614447
0.3484500001933714
0.3671726781325971
0.3848241364034561
0.4020480298550162
0.4179626482616491
0.4344914732485264
0.453636072251322
0.4741715254380582
0.4972235651400568
0.5281226605835269
0.2421504740855217
0.2344851020980574
0.2363840612533556
0.2446652635365745
0.2567047293295948
0.2717246817836892
0.2904417249809408
0.310635073003374
0.3309205289947242
0.352365933080768
0.37272711321989
0.3929780568451654
0.412763415568084
0.4325263229199637
0.4533745605808429
0.4764027185584954
0.5035762903044233
0.5382062174632132
0.5876132430339326
0.2401900871961734
0.2321562322518227
0.2349797522007549
0.243643274668993
0.2565971065678143
0.2723656980264233
0.2918028061216475
0.3130132180582144
0.3343359145023737
0.356963270771775
0.3791493599815491
0.4017351235449526
0.424390715865765
0.4485496105452388
0.4744526852297082
0.5031240681939767
0.5392131698966026
0.5909134866132414
0.6563936727324595
0.2372452887401777
0.2290895749461607
0.2329264057482571
0.2424101430794367
0.2560060730677815
0.2731713438072495
0.2935136949059396
0.3153362191630885
0.3385221135495158
0.3621711870430218
0.3861310111833353
0.4120382700651093
0.4382749491479126
0.4667552645322091
0.4976751722995059
0.5346521990649126
0.5849316649010978
0.6582741530970958
0.7258500804340962
0.2334393820800388
0.2256212034609309
0.2308265398934591
0.240861157220358
0.2551403144841633
0.2733951424263695
0.2950904316170405
0.3181485621426678
0.3422346329450097
0.3670269959102295
0.3937337273016349
0.4231451883994633
0.4534891471213269
0.4865207628232921
0.523649461056774
0.5725521856076877
0.6415663733606113
0.7308689008639615
0.7750428532884838
0.2291415914545139
0.2221765639369356
0.2285609249797337
0.239384389020635
0.2547463896386121
0.273576967916378
0.2958340395511874
0.3203005703575121
0.3457630527009988
0.3722217039292788
0.4022493513923995
0.4351798456522371
0.4701353466373505
0.5088794177558081
0.5536321113153427
0.6154426441644003
0.7065970680270237
0.7977536729432075
0.800751246891241
0.2249581516593587
0.2193239412746014
0.2265013961412435
0.2383748092161409
0.2545928101779841
0.2739501069039672
0.297196597357615
0.3227648228687134
0.3489744477436517
0.3773500783390867
0.4111465283733279
0.4489311850100179
0.4881697541148467
0.5328824492462313
0.5879513432894696
0.6657147181956031
0.7746642570697839
0.858415130719901
0.797497200335284
0.2211464526755831
0.2162859863511734
0.2247149252413791
0.2374413618453134
0.2543610665566955
0.2744067016799079
0.2984414513207373
0.3249957925363107
0.3523218615832835
0.3830366683328586
0.4198135613048782
0.4617072619521637
0.5062944660555996
0.5571758956470614
0.6225980172431999
0.722867666445765
0.8487175577968635
0.918918905975844
0.7428594549665785
0.2177858118223734
0.213032361442179
0.222583029154912
0.2361360465380782
0.253944529597239
0.2749833619335337
0.2995489670957243
0.3266186407120207
0.3560546672331219
0.3896237390381608
0.4290212675410083
0.4753290226702257
0.5264028779123547
0.584568980105252
0.6653025994991487
0.7875863131727942
0.9201981076726332
0.9294801215152098
0.6729787902153975
0.2142928865205953
0.2100946206699966
0.2205362627665462
0.2349054266069197
0.2540820018164861
0.2758677298242957
0.3006751646288523
0.3281310754060343
0.3592982672014858
0.3964416893850609
0.4391004244797463
0.4894161225097962
0.5461974981053335
0.6138155129846111
0.7130685798102744
0.854197515283991
0.976617017101499
0.9023982496136338
0.6159363644473557
0.2099661607639314
0.2069087375292277
0.2190661858629314
0.2343010895640148
0.2541727905710055
0.2764156320077222
0.3013658300158928
0.3297810583235868
0.3629626166814975
0.4035189721924445
0.4501152985844435
0.5040788724725517
0.566287863052504
0.6467420475964465
0.7619447853008467
0.9114280917405276
1.0126666325897329
0.8845327814714128
0.5592728525716472
0.2057155617587778
0.2035900774037664
0.217705217283794
0.2339679067137521
0.2538203282983444
0.2769385784244737
0.3027996866418273
0.3319825697734305
0.3673278030562367
0.410206454970361
0.4600151563189008
0.5189004805306846
0.5852602375799584
0.6773821635271997
0.8100868912071909
0.9618794480039804
1.0129755642103937
0.835725160905934
0.5071050254510159
0.2021440896375803
0.2007409601948888
0.2159561972389525
0.2332608016387038
0.2535993304620294
0.2774169522301434
0.3042929972670755
0.3340463705203192
0.3707200960343431
0.4155578814095177
0.4695105907740169
0.5335076117728694
0.6049130262079983
0.7052846390573485
0.8539357321419558
1.0103363815324575
1.017535677147965
0.7898607553699982
0.4633281971404026
0.1986227005262241
0.1982659125378341
0.2144718435688934
0.2328204718906486
0.2537906987732737
0.2777850945585529
0.3049453569576086
0.3354606538846494
0.3733638437002777
0.4204846877759838
0.4790316506075143
0.5462337004575888
0.6261805459564219
0.7383887962907638
0.9017830313730628
1.0620177588922697
1.039436916566316
0.7672092108444429
0.4345760002282641
0.1955254294439969
0.1965439289445053
0.2140599683145111
0.2326673644152709
0.2539105685006789
0.2781012214518579
0.3052983440192847
0.3372656596744279
0.3766380579096978
0.4262437806858495
0.4872680069240732
0.5575578930602191
0.6468313628188929
0.7705683319550289
0.94237236248361
1.0886124489096292
1.0362682264786058
0.7419791610012509
0.4154544562952939
0.1926111841674687
0.1950590122513794
0.2137417681429215
0.2324617755155558
0.2535440435146653
0.278151284398517
0.3059846380493024
0.3393215630593574
0.3792868227150285
0.4309917261252238
0.4951092640515243
0.571003087606118
0.6683624701610865
0.7969855403022282
0.9745361618093058
1.0864191256013882
0.996036870645956
0.7042911871803411
0.3959391130004783
0.1899037106064312
0.1936755040564343
0.2129973406689983
0.2321401653241677
0.2533091000777374
0.2780666284571133
0.3066333575585858
0.3413704107960106
0.3819468361713033
0.4350912533288389
0.5019526446508786
0.5818649358396144
0.68261159755002
0.8197193095691669
1.0097969644179452
1.087209653710591
0.9568230482256292
0.668483474289625
0.3788526001581181
0.1878083250176548
0.1923608693777644
0.2124003702697616
0.2319040405492559
0.2534794706007665
0.2782049664700538
0.3071699726153515
0.3431323921944722
0.3855118533994049
0.4406918711015712
0.5089590858813935
0.5912410017418136
0.6952186461714209
0.8448304614368437
1.0429491065944092
1.101274267960788
0.9467824253509144
0.645624408306919
0.3646301626896049
0.1861728173081815
0.1913746074758053
0.2123019430184163
0.2318733422127795
0.2539034868337758
0.2787967603290494
0.3078363785734281
0.3439003728005171
0.3879010275155112
0.4459322106840191
0.516772275818752
0.601809565204369
0.7108812912509539
0.8727140390963194
1.0718256551507848
1.1213084119463592
0.9491059483041095
0.6309207512809679
0.358503803113047
0.1846633766542703
0.1905832416007104
0.2120141075518353
0.2319664648871587
0.2545977733380368
0.2796650137902978
0.3085625071129326
0.3446461910933969
0.3898219639180797
0.4488912823596993
0.5208366218227659
0.6095027880030648
0.7227425465181065
0.8958650449478515
1.0934571547738274
1.1323811381414215
0.9516708615047036
0.6203315335801084
0.3515860656264534
0.183428523362152
0.1900950154772174
0.2119349702294749
0.2322539479751317
0.2552650859294691
0.2808127868464414
0.3092743841821874
0.3452316888080967
0.3925548472090652
0.4519491593627527
0.5240301554766539
0.6163921679223526
0.731427092046834
0.911419135706104
1.1099392270062207
1.1432825183054989
0.9535524365383836
0.6099270301279608
0.3422543301213223
0.1826363802364237
0.1899667486831533
0.2122244353125485
0.2327398113153082
0.2556014778590439
0.2812203305118642
0.3096103634881846
0.3461427969212562
0.3950113989450481
0.4550651404962614
0.5293158771146121
0.6231676338631953
0.738373796315172
0.9264907652179422
1.131320218820738
1.156030063600504
0.9500879692322476
0.6032569935228254
0.3387093077090701
0.1818697883033783
0.1897236441161791
0.2123058442075868
0.2330287335148641
0.2553778800843918
0.2810554970340389
0.3097756418479453
0.3473359156466486
0.3970805450426964
0.4574808022590766
0.5323514496266676
0.6280800931652603
0.7477821323500157
0.9418676860576096
1.1478591772644824
1.163218263671767
0.947224938830836
0.601850905690128
0.3389094178938034
0.1813111446140216
0.1898451599982043