/*--------------------------------*- C++ -*----------------------------------*\
| =========                 |                                                 |
| \\      /  F ield         | OpenFOAM: The Open Source CFD Toolbox           |
|  \\    /   O peration     | Version:  2112                                  |
|   \\  /    A nd           | Website:  www.openfoam.com                      |
|    \\/     M anipulation  |                                                 |
\*---------------------------------------------------------------------------*/
FoamFile
{
    version     2.0;
    format      ascii;
    arch        "LSB;label=32;scalar=64";
    class       volSymmTensorField;
    location    "0.0041";
    object      tauij_LES;
}
// * * * * * * * * * * * * * * * * * * * * * * * * * * * * * * * * * * * * * // 
 
dimensions      [0 2 -2 0 0 0 0];
 
internalField   nonuniform List<symmTensor> 
13597
(
( 0.1780667803226626 0.0390782721054017 -0.0005021145737843 0.080325231719936 -0.0284141936345739 0.1066807566753175 )
( 0.1783428380570917 0.0395380255725828 -0.002012867142207 0.0815732475968467 -0.0288660978153273 0.1043674162525743 )
( 0.1803390080781687 0.0407267219842362 -0.0053739480903585 0.0848124849635417 -0.0300260135350279 0.1022683867425512 )
( 0.1831497651610123 0.0436750799631803 -0.0087083610493752 0.0895615074041853 -0.0310785838536327 0.1037128481616575 )
( 0.1861664878936237 0.0476258451638934 -0.0103174414186259 0.0927652197834325 -0.0307261760078563 0.1086167070897417 )
( 0.1901661151922982 0.0520023783448655 -0.0104512231161591 0.0944436218930133 -0.0288226472180217 0.1147107190681504 )
( 0.1943406147141551 0.057181707046391 -0.0102481055024179 0.0959431213201866 -0.0262340734226796 0.1221103138360935 )
( 0.1985947165581671 0.0627473100722309 -0.0100511113966287 0.0976251708362123 -0.0230896257413682 0.1309564441850015 )
( 0.2033122824138098 0.0684297919248195 -0.0090034592712752 0.0993919491269724 -0.0194044281142577 0.140748895756569 )
( 0.2082846787002127 0.074032259407381 -0.0076341192950327 0.101288865635357 -0.015645778410997 0.1504894134284491 )
( 0.2145018286168937 0.0797003013313298 -0.0061350077685971 0.1035833854455443 -0.011352802012953 0.1604967308571572 )
( 0.2213570208040365 0.0853322296847091 -0.0042509518725251 0.1064781733767148 -0.0070281442911082 0.1702068168737036 )
( 0.2282199552501445 0.0905825559435118 -0.0023577574812253 0.1095357546753505 -0.0038202113194216 0.1779686964468677 )
( 0.2352687633997185 0.095042376274212 -0.0006904066415641 0.112979903952936 -0.0007977543142087 0.1843600249241003 )
( 0.2427324970577801 0.0989343746976322 0.0004105115908316 0.1170322856177143 0.0021490519835822 0.188539594837417 )
( 0.2496868134958813 0.1023861339653283 0.0014767642125471 0.1206121967719696 0.0045856375960527 0.1913933452017265 )
( 0.2562692818447308 0.1047546192547175 0.002895863406455 0.123128933335309 0.0064730377484514 0.1937657733519691 )
( 0.2631855819336259 0.1065727167953242 0.0037475460492441 0.1255064203889791 0.0079942345349665 0.1938116506428874 )
( 0.2702626079707788 0.1085242917567999 0.0048482445792876 0.1282366646935283 0.0095300334968728 0.1929819635360219 )
( 0.1661548603579412 0.041685546947214 0.0038198112450577 0.0772432132978133 -0.0228092717398601 0.0995639545962303 )
( 0.165772688252334 0.0437953124320074 0.0019108950984444 0.0800579133442529 -0.0223192481494217 0.0981207863043469 )
( 0.1695869179910364 0.0487946745036639 -0.0003202013839075 0.0871959216654707 -0.0215547188642088 0.0990354674038023 )
( 0.1767555723107005 0.056854614121143 -0.0010178942567189 0.096847804661428 -0.0193039705669595 0.1062668742946035 )
( 0.1833416416711129 0.0648672586280706 -0.0009864668549916 0.1035664555793918 -0.0162320765251498 0.1145176316388956 )
( 0.1899693048667633 0.0727969363223882 -0.0005113373020574 0.1089213238367335 -0.0129742219616648 0.1233715481231756 )
( 0.1976283993056403 0.0811286904188369 0.000185354087793 0.1143349142750569 -0.0093797814813952 0.1330528835980761 )
( 0.2051544602087902 0.0897188573329458 0.0003311993189524 0.1201161103076537 -0.0056286971889745 0.1432794772144674 )
( 0.2125053578712228 0.0978690744496986 0.0005160449337737 0.1253863569998607 -0.0020657775621767 0.1538662116462828 )
( 0.2202076102310828 0.1053587568746742 0.0011662700559195 0.1300894515902898 0.000950209580859 0.1633429477886546 )
( 0.229005223583733 0.1124394842437136 0.0012015473487537 0.1347033659638863 0.0035893165783337 0.1723033110093732 )
( 0.2377737239538361 0.1184626727810919 0.0006223751519411 0.1388840662207588 0.0058156715078191 0.1805631886967188 )
( 0.2463168981363019 0.1234583564823848 -4.9159782498654666e-05 0.1427262626594417 0.006695308082851 0.1862399378177167 )
( 0.2550028008168853 0.1275722224160519 -1.0163199563922469e-07 0.1460986203683029 0.0070989811817055 0.190317270683136 )
( 0.2628251876316872 0.1301487464997274 0.0005754601530688 0.1485615409320024 0.0075982895517395 0.1931056092210213 )
( 0.2693703718371876 0.1317077790071664 0.0010414186345285 0.1502432426565749 0.0073789847200978 0.1946392138106119 )
( 0.2744491035134614 0.1323430015739145 0.0020125682161075 0.1506529003518482 0.0068532659346534 0.1955506614281804 )
( 0.2793822775527819 0.1320259589476786 0.0035456818120657 0.1507082739284028 0.0063374827032537 0.1950505047218567 )
( 0.2842159328572898 0.1314652534034909 0.0054758561981874 0.1509012557746256 0.0059098070727559 0.1943602345382691 )
( 0.154697178917711 0.0458454929998195 0.0036506607215399 0.0764118054170459 -0.0174114233284527 0.0994719563453038 )
( 0.1554960897742589 0.0503936938252218 0.0023622180438995 0.0814733958634205 -0.0158912402614546 0.1004906529629824 )
( 0.1629087127811173 0.0598792358773062 0.0024414767111567 0.0929591247315646 -0.0133711260878918 0.1057604674755257 )
( 0.1736208946281886 0.0723297751340439 0.0039403655394909 0.1068680829658674 -0.0091231970452044 0.1179139299311996 )
( 0.1821679301954447 0.083041950853553 0.0045280815055759 0.1170902943611625 -0.0051484683448042 0.1286141617940868 )
( 0.1907373572747541 0.0934408694806633 0.0050029570883745 0.1261823344025878 -0.0018765967146093 0.1389407829729702 )
( 0.1995360533944875 0.1031320532929421 0.0054206713846396 0.1342919977659011 0.0011726850756536 0.1491731626732221 )
( 0.2074310247165001 0.1115221152344557 0.0052765019846476 0.1417808891945884 0.0042501170754595 0.1595387736777248 )
( 0.2153842407472882 0.1187902917826187 0.0050053226051257 0.1480245224716066 0.0067346264223148 0.1694763268460495 )
( 0.2238212029933637 0.1251910222536253 0.0050827874461257 0.1528641771455583 0.008375168827092 0.1773920467894911 )
( 0.2313142082106248 0.13020143074038 0.00522666773939 0.1567598777949218 0.0095488495223767 0.1837234194580499 )
( 0.2385746343173067 0.1332254813268393 0.0053688269973349 0.1592089005500958 0.0102663372486639 0.1889617826506831 )
( 0.2457707221762816 0.1346897523974473 0.0062235120685154 0.1602587886311713 0.0101453221495537 0.1924443030190673 )
( 0.2517232663131039 0.1349007962715703 0.0083804345086237 0.1601241991778653 0.0096672189433838 0.19426262873874 )
( 0.2561075598387657 0.133858053653235 0.0117422506087952 0.1587899582140725 0.0094120525022029 0.19537445868188 )
( 0.2592356639815593 0.1321211918366708 0.0148469033877867 0.1568918429838535 0.0090209010530825 0.1956812553162605 )
( 0.2608550061960296 0.1298387918471353 0.0181033973564115 0.1545879974963625 0.0086358870416814 0.1950193009623758 )
( 0.2615129394844365 0.1268347506883663 0.0221054221361838 0.1517231410668765 0.0086130621854975 0.1937482990834279 )
( 0.2618219258416112 0.1233314008541267 0.0259876164560429 0.1481377450767767 0.0084992720371333 0.19205185061928 )
( 0.1478208350421295 0.0507975763625237 0.0024607195946302 0.0781428072808052 -0.0123373302762246 0.1042132438600553 )
( 0.1509599274067784 0.0579161565666868 0.0025050937552633 0.0859371707130679 -0.0096011738758497 0.1081849615764581 )
( 0.1600417732133172 0.0704576988841911 0.0043095249078068 0.1013720905528033 -0.0063341846752611 0.1165044370949633 )
( 0.1712719046286157 0.0849566721589544 0.0066976308127348 0.1190121771198473 -0.002291402017415 0.1310263684484481 )
( 0.1803561555273536 0.0963122740351866 0.008407203806253 0.1316312935651725 0.0015421401010217 0.1438525121156448 )
( 0.1890140884061922 0.1061928338913326 0.0099871261241783 0.1421371428786168 0.004484159795884 0.1551749650245296 )
( 0.1969430771126822 0.1148025206436631 0.0113724455510864 0.1513025239905485 0.007079525664253 0.1655733282633515 )
( 0.2045186985084774 0.1213713799260928 0.0129894368414389 0.1587688072060159 0.0097213726582536 0.1751990672954681 )
( 0.212015021213151 0.1261785678259851 0.0150310327215392 0.1640181626994232 0.0116942509883018 0.1830414843512027 )
( 0.2195976007023843 0.1293801120965738 0.0173845238218765 0.1672000916083918 0.0131199794667011 0.1889346224813355 )
( 0.2256580394930443 0.1305112613627637 0.0204294962660902 0.1678101179897249 0.0140500715810648 0.1917076433495224 )
( 0.2310486572548493 0.1296278507908304 0.0240970790589424 0.1666035975724744 0.0144299537619458 0.1925210508630324 )
( 0.2362802042901294 0.1276274690165857 0.0285828218214983 0.163489898901018 0.0144076538828965 0.1913235733894601 )
( 0.2401998306058691 0.1247346568130286 0.0335882211917277 0.1591086420000282 0.014529329591113 0.189068755800028 )
( 0.2430857108390827 0.1213240974201657 0.0385996539925476 0.1548149534669734 0.0147967908667885 0.186462436156317 )
( 0.245216129649746 0.1181864656832518 0.0431510225370779 0.1504229165683056 0.0148731201141943 0.1831698111105582 )
( 0.2462775482098625 0.1149963706732637 0.0470922988952564 0.1458681208471864 0.0150467556390819 0.1793405359098794 )
( 0.2473431364796928 0.1118481976603029 0.0507305300063737 0.1412591878540718 0.015285530347489 0.1749970116684306 )
( 0.2483297519487673 0.1085943062097753 0.0542725819264587 0.1359550352387628 0.0153377938684016 0.1703776739223302 )
( 0.1448788484142424 0.0560183641282723 0.0010645497530069 0.0817933510380703 -0.0078260942018351 0.1121828712267867 )
( 0.1495129347659165 0.064770568532126 0.0025614884459069 0.0923767471367837 -0.0047340697352415 0.1175872094234988 )
( 0.1587753986652864 0.07901310209967 0.006539482231697 0.1113272508707039 -0.000948590712685 0.1291654118089868 )
( 0.1695443590171706 0.0935959020713454 0.0108545360076896 0.1312380845783634 0.0030312164334576 0.1461771193472366 )
( 0.1781822473532297 0.1037818785991925 0.0146478552974589 0.1448918208696386 0.0066813039421967 0.1605026179969329 )
( 0.1863620028535322 0.1118091766623592 0.0184693857077666 0.1558702488802797 0.009952494655632 0.1727735100585218 )
( 0.1944871541455004 0.1182866407771685 0.0230060631771819 0.1643832127430804 0.0132054068064058 0.1829631612607305 )
( 0.2020859352579257 0.1224304834490727 0.0275388653837187 0.170350196831065 0.0161762995495397 0.1912356608749748 )
( 0.2091986912574195 0.1243501733061467 0.0318455371014078 0.1732415907821254 0.0181524140507056 0.1953570519094226 )
( 0.2162429353039084 0.124702477150335 0.0362582845636814 0.1737985627079178 0.0193776021715676 0.195297359968153 )
( 0.2232644034549763 0.1236755259378954 0.0410372450073721 0.1720037993070038 0.020040873082697 0.1920656001644357 )
( 0.2297463988329341 0.1212390081232599 0.0458676193763684 0.1680303835097625 0.0203690002674022 0.187297016246035 )
( 0.2354933681538406 0.118109926048011 0.0503056243502085 0.1625873232656668 0.0206845798998762 0.1809909096956467 )
( 0.2402653900818084 0.115017493724219 0.0547722940929258 0.1569405700779108 0.021096583343026 0.1741485615193693 )
( 0.2442550218567079 0.1121652320058558 0.0584706870018466 0.1519755179410369 0.0214473091068332 0.1677465566227711 )
( 0.2478041603728636 0.1099334489365769 0.0612192399458689 0.1471049914024454 0.0215041064613309 0.1614872833020644 )
( 0.2501698470691897 0.1079137298230309 0.062893709202549 0.1422663707026732 0.0215061546450361 0.1552239860632968 )
( 0.2526696954343497 0.106271425625026 0.0638511739891693 0.1376416935660896 0.0212336304013135 0.1491781797492686 )
( 0.2552964629031842 0.1050455018778697 0.0643578645254199 0.1324827673738989 0.0205737938591298 0.1432596671243329 )
( 0.1435773999129064 0.0606422765295199 0.0005166285430268 0.0866899562325782 -0.0039449959778093 0.1208957935377504 )
( 0.1475765794835911 0.0703322788640751 0.0037847245029615 0.0998349790942149 -0.0005131354445627 0.1284340373613771 )
( 0.1566887935044729 0.0855742302158918 0.0108023363926538 0.1220501663474005 0.0042074190337571 0.1441771154444087 )
( 0.167851783670216 0.099373372199741 0.0182964180157643 0.1429640890036297 0.0090220581145969 0.1637310656189252 )
( 0.1764888895886153 0.107747131911571 0.0248583825428323 0.1562719001625711 0.0131200030583766 0.1785598042769542 )
( 0.1851914866562746 0.1141437157466874 0.0311502287476009 0.1667478977475929 0.016850868333288 0.1907204977071966 )
( 0.1941342400028815 0.1185714985947972 0.0373570326283245 0.1740023511006528 0.0202495920930881 0.1992096381541939 )
( 0.2023708482411717 0.1206010327928709 0.0426422538104786 0.1781690065774036 0.0228691144097363 0.2036199424627257 )
( 0.2107174854213076 0.1210040932854806 0.0471198145935955 0.179572814508711 0.0248310009440048 0.2028303026546119 )
( 0.219085152010325 0.1205265946405276 0.0512932011187865 0.178705200801691 0.0257811766673593 0.196859595430084 )
( 0.2272196775958816 0.1192825465649152 0.0552194160602928 0.1760049311554953 0.0258677959727413 0.1879570836622622 )
( 0.2347603402446043 0.1171873492214209 0.0578277849644424 0.1714929656636264 0.025730924030634 0.1772432473791498 )
( 0.2412806444812261 0.1147590440285699 0.0597154252239619 0.1656414134217442 0.025372332669581 0.1666660786393162 )
( 0.2465341779954234 0.1128373363019948 0.0613154659053008 0.1603852812803771 0.024934188656323 0.1566030106771279 )
( 0.2509566362550617 0.1117551724946916 0.0616360422647946 0.1562847237539864 0.0242895888290562 0.1477137130877463 )
( 0.2550280839678021 0.1112665343369518 0.0611123160267167 0.1523173405854666 0.0234555343941215 0.1405033548981878 )
( 0.258463100362007 0.1112111664891372 0.0598840859578708 0.1486711751902235 0.0225923982840992 0.1339840215395522 )
( 0.2618397991864116 0.1117531291735665 0.0580376504826269 0.1452135134656432 0.0213917040204311 0.128128273283787 )
( 0.2656733798657249 0.1129132594655405 0.055638153929506 0.1411286903433338 0.0197937597520733 0.1234715640583688 )
( 0.1407347222657118 0.0650037086712849 0.0010469497812039 0.0930673379629974 4.7701188993857954e-05 0.130983513543888 )
( 0.1445802759280107 0.0758095389585565 0.0073128718870376 0.1087513980677889 0.0048274878846871 0.1416520172956614 )
( 0.1545796523662095 0.0912691938155709 0.0180263739656135 0.1328453932568356 0.0107720053471201 0.1610479488001069 )
( 0.1665140205307148 0.103687047098467 0.0287398810682414 0.1534771923323841 0.016283854265528 0.1819856007712018 )
( 0.1765145560378749 0.1108912176148266 0.0372966677256891 0.1662729465469403 0.02076053286568 0.1965333436808885 )
( 0.1863236986795433 0.1159332566872824 0.0446136100722701 0.175893687965791 0.0244589076757295 0.2070322134205772 )
( 0.1955528756786788 0.1186735359053466 0.0499193723964439 0.1822662249007573 0.0269504588433594 0.2118563293414649 )
( 0.2044169142273161 0.1196843965306791 0.0537450569060522 0.1854669715846815 0.0286121108978999 0.2110253251954968 )
( 0.2138858555813014 0.120059008223206 0.0566877338081214 0.1865405681883031 0.0299845267880251 0.2052271175393449 )
( 0.2226933416912612 0.1195857987522189 0.0582406724334152 0.1856055810927333 0.0300002199756508 0.1942266951353147 )
( 0.230155107263892 0.1186334135112028 0.0589521718152009 0.1827088667420194 0.0287497348472652 0.180151470181178 )
( 0.2371950608619141 0.1176518881519946 0.0585058720722274 0.1788280840001482 0.0274934066692215 0.1651017442720641 )
( 0.2436600895630492 0.1169596065278005 0.0576454856044564 0.1745388302369169 0.0259545338590933 0.1517391821649386 )
( 0.2493722855042692 0.1169995754773772 0.0563649003569834 0.1706320263290744 0.0244674545943977 0.1403619032300193 )
( 0.2542123503051126 0.1177645086912239 0.0538748202581336 0.1677192237489219 0.0227923024278202 0.1309803439041043 )
( 0.2586703658165749 0.1194781840852503 0.0509580859798734 0.1655527751180689 0.0209577081035308 0.1243308435919557 )
( 0.2635577572669397 0.1219095035281388 0.047890698818752 0.1633749759777398 0.0191220780472137 0.1192233100282986 )
( 0.2688951968218737 0.1251352517565449 0.0442316158043622 0.161017769260375 0.0170075421872278 0.1153536511248889 )
( 0.2751461359417221 0.1291508129949323 0.0401589577131495 0.1581471617296267 0.0146421940673461 0.113440241422252 )
( 0.137278400721247 0.0700103442449721 0.0037634608157426 0.1008063212699182 0.0049289543141342 0.1424149385308163 )
( 0.1419736258182902 0.081571124339545 0.0137345345777533 0.1180380502255951 0.0112177676687124 0.1556024603326667 )
( 0.1543677406825308 0.0965093539964759 0.0281646875591553 0.1425384648772963 0.0185331103653823 0.1780335257334658 )
( 0.1673725577239567 0.1075197882146618 0.0406071808822142 0.1624953989003356 0.0243682554174823 0.1998405139292614 )
( 0.1780720581848746 0.1138424517401743 0.0493538210599055 0.174918348867508 0.0283887869867319 0.2133443486441268 )
( 0.1883879016228574 0.1178738928642482 0.0553940911424276 0.1840632744108333 0.0313660840665887 0.2203406364238412 )
( 0.1980283728499589 0.1198083597487781 0.0585303965188482 0.1898808493969626 0.0329324704584035 0.2205561216123205 )
( 0.2060942711161965 0.1204847371248461 0.0593931925762775 0.193490901807531 0.0331609251967716 0.2148830077892193 )
( 0.2139445822103179 0.1212725679980474 0.0592097042214793 0.1957535917808171 0.0324127489508556 0.2036545208610193 )
( 0.2214460838372667 0.1212444686886261 0.0576690055647858 0.1953557341899577 0.0309186677426359 0.1871708036823223 )
( 0.2279677457482424 0.1209864869050014 0.055265081550384 0.1931099570460652 0.0282488116722637 0.1688063786326915 )
( 0.2350287240421225 0.1217094906904637 0.0525757061379714 0.190324613107889 0.0255687099051719 0.1515562128619159 )
( 0.2421481160104134 0.1232525798381276 0.0496283613913576 0.1881236787125055 0.0232172430358124 0.1371736657195509 )
( 0.2483147221384037 0.1257118972769432 0.0461037064295991 0.186624622739692 0.0209197526959006 0.1261926069429524 )
( 0.2540014702532372 0.1289942597327667 0.0421651259695095 0.1852830424353221 0.0185588201520603 0.1184997119897775 )
( 0.2599196917756129 0.1334341998584036 0.0380977830382172 0.1848442365833755 0.0159686068553412 0.1134145727995822 )
( 0.2667102687697224 0.1387054908629584 0.0338741588381319 0.1842232711664365 0.0133863660661084 0.1103095443374204 )
( 0.2745649198504229 0.1448525124489903 0.0293930479832101 0.1830386181599566 0.0106071654066048 0.1092604540490412 )
( 0.2836524992349356 0.1517667895272559 0.0247013937845037 0.1812565778040684 0.0076260438169744 0.1105455382591858 )
( 0.1335934613717355 0.0753349403881015 0.0095145041092798 0.1086487308319078 0.0111041507594459 0.1541301981727321 )
( 0.1399408493022446 0.0870690855761458 0.0231260307840026 0.1266209868415214 0.0190060884923461 0.1702610558192881 )
( 0.1548349547805858 0.101138388069388 0.0395583893420225 0.1512687664881675 0.0267884032933566 0.1948102697618037 )
( 0.1683447729363385 0.1108281932140736 0.051328654284209 0.1707661275616439 0.0320557291379098 0.2158030139960542 )
( 0.1791789434130317 0.1165530894480759 0.0588160808802441 0.1832579888127042 0.0352734548964815 0.227485703583858 )
( 0.1884476653770917 0.1201139101697324 0.0620144470051927 0.1927176774328866 0.0371642690209666 0.2306414551176145 )
( 0.1960813723131128 0.121606468209399 0.0618949088361399 0.1988753037034406 0.0369000701412554 0.2254556528062331 )
( 0.2031223256735927 0.1225377244065096 0.0598797434248789 0.203197806927924 0.0350499205407996 0.2141748247155906 )
( 0.2093000850517776 0.1236204604157475 0.0565184537154105 0.2066532430079036 0.0322538312635981 0.1974975487966828 )
( 0.2151770232960847 0.124465973979701 0.0525916515956472 0.208061406981814 0.0292154876101071 0.1771004758915398 )
( 0.2217754555860829 0.1257643912045394 0.0481821630963971 0.2073006762223068 0.0255597291793508 0.1561760504722478 )
( 0.2297776888732111 0.1286701341259395 0.0439039091132196 0.2061103437750737 0.0217747165205666 0.1382393288718586 )
( 0.2381673687378547 0.1331847811025373 0.0395901973705377 0.2062402482350893 0.018659886482263 0.1243551468995666 )
( 0.245499203600859 0.1383684713976443 0.0348061607829771 0.2068428261837056 0.0156797473883761 0.1150918436101128 )
( 0.2527957469620858 0.1442925433165397 0.0303973556725375 0.2070678435966751 0.012885297610154 0.1098846200443396 )
( 0.2605459540153307 0.1514946154655305 0.0259351492554581 0.2081260553554475 0.009821015670136 0.1068357163486747 )
( 0.2689640149343882 0.1595448511120361 0.0210950551702941 0.2093881430526312 0.0066668053026975 0.1060245662358306 )
( 0.2791404641689692 0.1685201636535055 0.0162070643936698 0.2097801770934118 0.0033750119402903 0.1077189285200174 )
( 0.2910912337653865 0.1783391160403707 0.0110528358505311 0.2091232699927261 -0.0001351201161914 0.1119927668688625 )
( 0.1312743155222517 0.0812750252620834 0.0182588361610128 0.1170469808973616 0.0187077138268968 0.1666619344090621 )
( 0.1405210362705937 0.0931714689271552 0.034930974534838 0.1360255377312141 0.0275582535720417 0.1854771866476885 )
( 0.1558707396533989 0.1056848145404359 0.0508402286041858 0.1603220399999422 0.0345236974624372 0.2105640560980134 )
( 0.168501785103244 0.1140309730622607 0.0604683968152091 0.1790040392231512 0.0386773504009768 0.2292570554724594 )
( 0.178489640111803 0.1191732942414206 0.0647498882789832 0.1920700003427742 0.0406888649407854 0.2375418295979374 )
( 0.1854356553244573 0.1220658913386436 0.0645548072366241 0.2020873559390727 0.0404716862409372 0.2360208077935726 )
( 0.189975478949795 0.1233821757525877 0.0615198939595561 0.2093905243624265 0.0380270509589249 0.2256158040094901 )
( 0.1948579121039259 0.1247101112219053 0.0568939088018548 0.2152112074943918 0.0341708797615144 0.2087428858592021 )
( 0.1996499907487078 0.126160357788222 0.0512907312453464 0.2196167753716999 0.0297572775494239 0.1878173143062056 )
( 0.2053689286160168 0.1286352459013092 0.0456484499408881 0.2226428476006997 0.025497412589701 0.1652178590450222 )
( 0.2137527669740813 0.1323564453731232 0.0401597008155847 0.2239434450344028 0.021392235682788 0.143789322197819 )
( 0.2232494733026321 0.1376592265238551 0.0348770565302303 0.2250714785922871 0.0172396199169854 0.1265230138602869 )
( 0.232683436878878 0.1448011618310958 0.0297832898150263 0.2272362382903267 0.0135689753736068 0.1146692324215595 )
( 0.2418236234079676 0.1526909525539826 0.024757512474291 0.2294443590354672 0.0101395387445742 0.1077264598582281 )
( 0.2508364920351928 0.161674921441281 0.0201132949506916 0.2321798852510915 0.0067896449195504 0.1043418896198587 )
( 0.2602611434109766 0.1719150547085868 0.0152373340558127 0.2355962530855304 0.0032611630213749 0.1033703042133783 )
( 0.2710416063711151 0.1830534463967815 0.0100329911889536 0.2389471528654041 -0.0003952984717636 0.1049581146288824 )
( 0.2842207752049432 0.1950682144217508 0.0049825406012132 0.2411150181773487 -0.0041437761467626 0.109026970194776 )
( 0.300195664238312 0.208108156546261 -0.0002651412484401 0.2416186009523599 -0.0079478069465208 0.1155694833866906 )
( 0.1317174300535903 0.0875065512497925 0.0293735287130861 0.1253714565447102 0.0267161628359244 0.1790680383877586 )
( 0.1422310397842749 0.0983180534422051 0.0466961314031372 0.1444283192734175 0.0355597467493565 0.1985198869006897 )
( 0.1565573529189624 0.1095314607497795 0.0606831694507093 0.1688706200133312 0.0416327933324789 0.2238461691047218 )
( 0.1670277150763575 0.1168638374062824 0.0668774561061221 0.1872345152593589 0.0439923905540362 0.2397889774123092 )
( 0.1740410565683874 0.1209351785622369 0.0671088035260454 0.200829490424677 0.043941109574204 0.2430522770227138 )
( 0.1781776578335567 0.1230913077013217 0.0636771299854131 0.2115472561606033 0.0413640788804379 0.2367941625677795 )
( 0.1809196414972399 0.1247328445095778 0.0583936628217365 0.2205273190450427 0.0369448792247328 0.2223028292449001 )
( 0.183922513693068 0.1264380253041528 0.0517843221129343 0.2282222067608252 0.0314968278121494 0.2014801055074269 )
( 0.1882400401224234 0.1287614289135817 0.0448178402786472 0.2338092582636369 0.0262627888171974 0.1774021654073648 )
( 0.1946946897294394 0.1331853440649362 0.0382079349079616 0.2385449619621742 0.0214398654912585 0.153531401484762 )
( 0.2042265527247629 0.139662443649535 0.0321975395679037 0.2425875025373843 0.0167798980779879 0.1325253994557874 )
( 0.2157623215578968 0.1480116143452603 0.026551136754503 0.2464344418120587 0.0123198645961298 0.1166117479263803 )
( 0.2268457993271669 0.1578197088115185 0.0212475557421676 0.2506279217866302 0.0082684132130059 0.1072143085352674 )
( 0.237956575529023 0.1684973546522814 0.0162006391089416 0.2547842810548639 0.0045339987325961 0.1026024440002915 )
( 0.2490941798026668 0.1806383321293689 0.0111533663617557 0.2604188263099236 0.0006189940216984 0.1012164570739793 )
( 0.2610115996505115 0.1942711286029624 0.0061478884849755 0.2668184466954981 -0.0033232252260311 0.1024452008045597 )
( 0.2751621082172937 0.2090332509701907 0.0011038082329086 0.2726144805732046 -0.0072447775311779 0.1060516678403476 )
( 0.2918575793976659 0.2243472030427821 -0.0038260892881053 0.2766655447205896 -0.0110930867488987 0.1117516461163174 )
( 0.3122378128135029 0.2411297933171824 -0.0089004880554137 0.278995346347848 -0.0147356427957134 0.1198487516350057 )
( 0.1330108561554075 0.0931014931079529 0.041408795998912 0.1336452370756295 0.0344629430681447 0.1904867525085662 )
( 0.1431509209270602 0.1027945791755358 0.0580336584549695 0.1527839510913291 0.0430536414705364 0.2101045482931688 )
( 0.1558471376285791 0.1128263882775808 0.0684807545950767 0.1774511832942125 0.0476234848443215 0.2344024146308276 )
( 0.1629958530186552 0.1186411069074946 0.0703414237484458 0.1957000380720623 0.047888017502919 0.2464147469230973 )
( 0.1663542000384719 0.1216514518381062 0.0671847051996413 0.2102158674240574 0.0453194755248955 0.2447404277368355 )
( 0.1680044996702781 0.1236550304477258 0.0609780858258168 0.2224810940408061 0.0407200663779906 0.2338094752951975 )
( 0.1698663716657501 0.1254961035520988 0.0534425682319836 0.2325524532172534 0.0344028928944858 0.2153718832886945 )
( 0.1724320135449019 0.1278686365175657 0.0453810513765448 0.2417327817171001 0.0279141361549124 0.1913788936253008 )
( 0.1771564788665841 0.1318062617398304 0.0379393707941472 0.2490799151197739 0.0225615642308444 0.1653798382215814 )
( 0.1845020668473891 0.1384445497536921 0.0310715694791623 0.256308559386965 0.0174001176082821 0.1415856403102908 )
( 0.1947623516123126 0.1474501146202296 0.0248346968870545 0.2632552052730642 0.0123507446733136 0.1222870393546694 )
( 0.2078282521167224 0.1588857558905515 0.019157151019621 0.2699553782303261 0.0074762057864866 0.1088705239612112 )
( 0.221189851247003 0.1719003744065389 0.0137730384143752 0.276719130523219 0.0030095517594137 0.1016929239988256 )
( 0.2353164860674791 0.1860174659928134 0.0086882936244793 0.283290466216211 -0.001194269076725 0.0992856677717406 )
( 0.2494300504895076 0.2016512874803602 0.0036281680441832 0.2920704797108024 -0.0055058670044016 0.1002300381427086 )
( 0.2637818383369212 0.2182735195063667 -0.0010784428773661 0.3015947980549618 -0.0095828933644509 0.1033653157983867 )
( 0.2808430104850807 0.2362557445262441 -0.0056468523572095 0.3099711797029327 -0.01340593540524 0.1081836751712635 )
( 0.3020745254527706 0.2557447379268642 -0.0104329806157802 0.3163352107748302 -0.0171421335626271 0.1150928722838752 )
( 0.3279870927939361 0.2768711318128533 -0.0156939059736777 0.3205295382279597 -0.020935824312005 0.1244822107475279 )
( 0.1338264722823846 0.0981117512566318 0.0538468095986013 0.1421834220004107 0.0425504280513157 0.2010916859861524 )
( 0.1428765617168157 0.1070087602378832 0.0679349205894957 0.1620175664180421 0.0498085916843065 0.2206348667169983 )
( 0.1526194908097222 0.1153466137414116 0.0735602338250096 0.1863113469671514 0.0519171689241153 0.2419370622009159 )
( 0.1566670298704902 0.1196708282189216 0.0716290983564374 0.2045517237707451 0.0500504662209387 0.2493742598011705 )
( 0.1575846850309175 0.1218207843511694 0.0653251993874879 0.2198270160078955 0.0449843529347798 0.2433018205208059 )
( 0.1573717556598203 0.1235371561854348 0.0569437124502821 0.2331911357351583 0.0384313775031143 0.2274905126053885 )
( 0.1582495069505018 0.1256837170910741 0.0479101273273585 0.2444254221312543 0.0312400982227657 0.2055663883928159 )
( 0.1604904579571749 0.1294544409981994 0.0389571532198794 0.2558101940422935 0.0243291492753775 0.1799660201257553 )
( 0.1655280963434865 0.1353635363045685 0.0314144692065148 0.2664606309670507 0.0184245765675108 0.15423800137729 )
( 0.1745125398956276 0.14392580133068 0.0247525957181128 0.2755652128203044 0.0131181422559362 0.1314667842355274 )
( 0.1872473380095089 0.1558584280292785 0.018594771698131 0.2849190309637445 0.0078348687766725 0.1138860911551427 )
( 0.2020337319878168 0.1703926957992549 0.0128975795946297 0.2945347211419563 0.0027104542720448 0.1030926602735542 )
( 0.2174246026722939 0.1866187345620732 0.007649885115882 0.3044701971752187 -0.0018423780104643 0.0982703155408077 )
( 0.2339923295062076 0.2044856041300347 0.0026474427726752 0.3152011606943032 -0.0064802013188924 0.0980069218968752 )
( 0.2502286505023698 0.2232522633078805 -0.0021028810651212 0.3275414642339816 -0.0109350584989859 0.1005353019568454 )
( 0.2673589886106577 0.2429574744919127 -0.0065543899424664 0.3398644521861269 -0.0150240137801915 0.1048242412539924 )
( 0.288152237556608 0.2649387518804266 -0.0111196620422986 0.3516012759280575 -0.0190032478833805 0.110835102155514 )
( 0.3142650011652486 0.2892674402492688 -0.015930095595719 0.3613202895857338 -0.0229287588916683 0.1189654847627554 )