/*--------------------------------*- C++ -*----------------------------------*\
| =========                 |                                                 |
| \\      /  F ield         | OpenFOAM: The Open Source CFD Toolbox           |
|  \\    /   O peration     | Version:  2112                                  |
|   \\  /    A nd           | Website:  www.openfoam.com                      |
|    \\/     M anipulation  |                                                 |
\*---------------------------------------------------------------------------*/
FoamFile
{
    version     2.0;
    format      ascii;
    arch        "LSB;label=32;scalar=64";
    class       volScalarField;
    location    "0.0056";
    object      k_LES;
}
// * * * * * * * * * * * * * * * * * * * * * * * * * * * * * * * * * * * * * // 
 
dimensions      [0 2 -2 0 0 0 0];
 
internalField   nonuniform List<scalar> 
13597
(
0.1418157446243239
0.1430699227177194
0.1455761833817243
0.1507764160346976
0.155362464582861
0.1569116838862144
0.1570594001568703
0.1561290153426953
0.1543093276986326
0.1516344915380233
0.1482796141804329
0.144853358831021
0.1412581162476331
0.1377844296416775
0.134764601474461
0.1324896922141264
0.1312530132086155
0.1293286658833821
0.1270166941036764
0.1418791199624612
0.1427414133898372
0.1447857266146333
0.1503017759411898
0.153134233256039
0.1539737824827027
0.1538441801766792
0.153109820679952
0.1519018464556986
0.1500775325807018
0.1481361174225222
0.1468776339398834
0.1459255282100395
0.1453479309347423
0.1459791233463185
0.1472722307183371
0.1489099872173873
0.1499949310790098
0.1503731106579789
0.1408413536435615
0.14119635498868
0.14272906946795
0.1466056916890779
0.147411638455895
0.1472809659459213
0.1464635201407708
0.1455759984414334
0.1447741590799476
0.1448664664273025
0.1456861348697312
0.1479556136266617
0.1509901094141439
0.1537062724866064
0.1567055499732148
0.1589392160428875
0.1603039644376628
0.1607330036022751
0.1603023253693641
0.1385420691696082
0.1387531322625331
0.1396175604075096
0.1419699011079626
0.1421814445030867
0.1418221023194467
0.1413324690920083
0.1420274826933133
0.1433023827528759
0.1460236603131768
0.1493048978021051
0.1529603991890235
0.1572143596236047
0.1609944945462352
0.1639559335136417
0.1661752868623433
0.1674444177284919
0.168443162007341
0.1689359851315325
0.1380770209359096
0.1377626596191961
0.1381840612127969
0.1405275553588829
0.1411486834297825
0.1417359092152041
0.1427748263481205
0.1449904743758143
0.1480219454218106
0.1519711448211332
0.1571016870625967
0.1628329274521227
0.1685124965674231
0.1737549707714147
0.1779000775745653
0.1812239404960683
0.1837534897095188
0.1861809756463701
0.1882173258387298
0.1396854297357865
0.1392822016562741
0.1392676813719325
0.1418785663822581
0.1429299093370522
0.1443359451244848
0.146903340060834
0.1502082041424134
0.1548319720616895
0.1610890956941881
0.1684481588126818
0.1761631099876985
0.1832432574753572
0.1884401888729067
0.1928942611894813
0.1962899564240382
0.1987409174374428
0.2001940975081778
0.2010109455212782
0.1428479424294195
0.142759513829356
0.1428378355745353
0.1447934839980748
0.1461137206625527
0.1482544815680938
0.151566013986079
0.1562693009975993
0.1627565351215099
0.1705557251347582
0.1786486042466254
0.1868729751792198
0.1938305648027852
0.1981727077534694
0.2011715889780211
0.2030462078333186
0.2035242625827795
0.2026642963961638
0.2008125233315857
0.1476064016692555
0.1469398666516852
0.1466120482997704
0.1482577550040029
0.1498582963146484
0.1523557384957825
0.1568206709094823
0.1629432718489306
0.1700520204362771
0.1780864062225377
0.1858423457315375
0.1932935233145598
0.1981725315596222
0.2005231524926166
0.2015772608311612
0.201133456276989
0.1993474916548764
0.1964022252256078
0.192647599211148
0.1523904514244442
0.1507540951523585
0.1500366759285312
0.1513461833682504
0.1529003853377172
0.1564831000189052
0.1617922654202644
0.1681503758576006
0.1751945556773894
0.1827684526691527
0.1895345809147438
0.1948936108350279
0.1973728931503321
0.197513805406038
0.1968106681615332
0.1946426598723117
0.1911262603562479
0.1874575093533148
0.1833797773350779
0.1567821165200468
0.1542240972995724
0.152862231998948
0.1538832785842049
0.1557963311121302
0.1595914650950713
0.1649390961642261
0.1717610373520802
0.1782261518498633
0.1847330822325568
0.190085389455999
0.1927381739413772
0.1933723473247711
0.1922367328075507
0.189970924642493
0.1869544844646513
0.1833867684383559
0.1800674953932396
0.1768437987014957
0.1603317300283714
0.1565255575823308
0.155038822599103
0.1561912763878094
0.1581741316556811
0.1616385922989073
0.1670568033615454
0.1735565030706255
0.179380036833059
0.1845149386949412
0.1876057785187436
0.1886127091141539
0.1879685668883443
0.1860765209801184
0.1833264053068321
0.1804262103529415
0.1780951412768954
0.1759870424603576
0.1739569099781845
0.1629458797066356
0.1581788157420881
0.1567164180447212
0.1578142194881722
0.1595977448618195
0.1634491996805998
0.1684134586347843
0.1732823768264801
0.178434872042222
0.181925148280263
0.1832290333347304
0.1835230034246312
0.1822050850882653
0.1804738102669875
0.1785244559753471
0.1767735433536145
0.1756788504427005
0.1748067482038089
0.1742440426339161
0.1652382706969085
0.1605111168171132
0.1587524652685469
0.1586562257466958
0.1606736902280802
0.1646695196563837
0.1689824150753716
0.1728229604365123
0.176829042149848
0.1788652961011915
0.1792706184331801
0.1792035027311863
0.177979295583688
0.1767765490793898
0.1760973195670981
0.1755916862447058
0.1755857768538496
0.1761457670940868
0.1774618964585567
0.1679712066830402
0.1626219204470609
0.1602524561089405
0.1593289641427496
0.1612815057399826
0.164506633766515
0.168228234276657
0.1717425495099777
0.1744375943547966
0.1757510643295384
0.1756924494306165
0.1754644635098588
0.1752761239940903
0.175115166392194
0.175362173597544
0.1761497174533309
0.1778034053255192
0.1803124449143019
0.1836739941678565
0.1703229791855893
0.1636216618285112
0.1608629493659722
0.1603081070188566
0.162025737667664
0.1640234970053592
0.1666196049633495
0.169656739653129
0.1715580308242616
0.1722073578862218
0.1721982743525535
0.1727643896577362
0.1737813120029105
0.1746385756806738
0.1761958833749205
0.1787541923589027
0.182287463321469
0.1868202723349121
0.1931161909211501
0.1716317480072326
0.1645065534224604
0.1615388468701511
0.1611206596898592
0.1622079657246452
0.163771520469585
0.1655935240540474
0.1672757659492242
0.1686029029446833
0.1685861364612625
0.1693521100725492
0.1716553155400438
0.1734546893505467
0.1752928703040242
0.1786136082865294
0.1829168681229367
0.1885074008564581
0.1961882223622349
0.2075438922823818
0.1726136437540618
0.1656641001243583
0.1622721606663645
0.1616545242082885
0.1619024698358477
0.1628767671553975
0.1643422723499517
0.1650130643308337
0.1655841548638777
0.1660232365100692
0.1677021786962802
0.1709819072226176
0.1738512739261116
0.1770861514129411
0.1823016590652398
0.1885685613765657
0.196874937133868
0.2094044839619281
0.2267588250640188
0.1739625460179708
0.1670125825877564
0.1632818348874555
0.1620473159783107
0.1615832983184715
0.1615994824309686
0.1626890727332724
0.1629481641357447
0.1632602301318888
0.1645271350174696
0.1666499751897053
0.1705815695986069
0.1751543399318716
0.1800713063417997
0.186983144264544
0.1955231392250547
0.2078956768618273
0.2261412818585287
0.245036473119974
0.1755757287498194
0.1680765424647125
0.1642748324286696
0.1622132462618663
0.1608326077254996
0.160335629425537
0.1608324360714563
0.1607454373778073
0.1613018737599248
0.1632559363998107
0.1664107485437422
0.1711628704815381
0.1771809223438573
0.1840225621174004
0.192658222386273
0.2042770812478416
0.2220604699341929
0.2457572531942383
0.2598806857556152
0.1767602150379228
0.1688741202177694
0.164865725338556
0.1618809234248968
0.1597240676917801
0.1589058405118014
0.1589168616360775
0.1587880051265791
0.1598003860123695
0.1623266033341347
0.1667383931141769
0.1727625802728075
0.1799560458847551
0.1882961537837591
0.1996354634029317
0.2155892711438392
0.2394044952354605
0.2664764292758015
0.2705243707403173
0.1784986994658289
0.1700404305745353
0.1651869115152618
0.1613381901474796
0.158631228767137
0.1573309983301617
0.1571785877059033
0.1573644611303218
0.1587927652802943
0.1617917944861804
0.1670070967762143
0.1746621154455507
0.1830630579805521
0.1928826387017029
0.2074182197865631
0.2288302053910232
0.2584215689232974
0.2847999506616249
0.2683673967940629
0.1802816348220373
0.1711362379356585
0.1654424264502041
0.1611822769220734
0.1578778438123778
0.1560378324542718
0.1558700522394787
0.1561578892191498
0.1578220464953956
0.1615725377242288
0.1678617532462527
0.176631616983786
0.1862497128184162
0.1985096722057054
0.2160354308414043
0.2431068602892338
0.2770049743673471
0.2989367026053243
0.2475143109593172
0.1810932812326475
0.1716441104637867
0.1655139879692184
0.1608180745489994
0.1569020675418993
0.154976282237222
0.1550086067366201
0.1551924042044231
0.1570167588099708
0.1617579269556238
0.1694851103922319
0.1790041177414772
0.1897579764336782
0.204389267195681
0.2262629183476685
0.2588303497691628
0.2947545386599354
0.300681731195573
0.2235092566456056
0.1819844633510047
0.1719124260032293
0.1653371622189452
0.1602727901780792
0.1557003188584503
0.1538458242316454
0.1538789100519251
0.1541675421545361
0.1565470741557026
0.1622109410982884
0.1709914745529634
0.1816737383915562
0.1940136691094747
0.2107683535529942
0.2370477346534444
0.2747437777070888
0.3106066219027019
0.2923669890079878
0.2014505388666656
0.1831607450748623
0.172251931425798
0.1648589613139343
0.1593071906162304
0.1544083999438952
0.152478506283874
0.152285877075014
0.1530965249455052
0.1564906307819931
0.1627857703442236
0.1723944003130856
0.1843981962323753
0.1984348204560527
0.2188206311385133
0.2489228543200373
0.2897979508097295
0.3215890974009202
0.2830878749917221
0.1784758486313378
0.1841132605633964
0.1724821684592556
0.1642475274501415
0.1580827449595375
0.1532680750775404
0.1515059496915831
0.1510538678799979
0.1523275752674933
0.1565255658984614
0.1635029255377292
0.1737541563966184
0.1867359339099757
0.202629628020183
0.2264776714219062
0.2609200429025383
0.3040597578237825
0.3220274149928878
0.2662664301129996
0.160501106036857
0.1844511971073928
0.172318724962922
0.1633796548360257
0.1570102341688622
0.1523556348383949
0.1506154202755132
0.1502847557852553
0.1520405392631417
0.156633683618265
0.1642721376419345
0.1750620682678511
0.1890610220922031
0.2067171510431668
0.232928601579579
0.2717855533098992
0.3159237177649463
0.3198070411066188
0.247984566290149
0.1455692335795881
0.1844005742575781
0.1716846613328518
0.1622169304495327
0.156161281839606
0.1517122697701772
0.1497791977425858
0.1499121064410752
0.1518931115982707
0.1566067173307352
0.1650327312670107
0.1767960262592154
0.1914392996145154
0.2106009629647913
0.2397083657334974
0.2830779556059716
0.3267977533261115
0.3223366380534563
0.2359849543400328
0.1334883268497591
0.1839782165473811
0.1711620929104213
0.1614642887844765
0.1553051208070104
0.1511021922996634
0.1491404936725378
0.1496125604407759
0.1517335481957435
0.156477936223574
0.1654065546477479
0.1781351409445012
0.193876120562734
0.2155363861637955
0.2470190218114503
0.2932442463271103
0.3346180649611482
0.3203880774035613
0.2250652760222054
0.1250988872492345
0.1832810043296223
0.170335242313244
0.160610791971841
0.154382235557173
0.1503762747790738
0.1484405870929481
0.1492372359189079
0.1516659875752271
0.156763865759421
0.1657797581803289
0.1788118746033132
0.1962511384935234
0.2198480987305862
0.253673824003964
0.3021404994170235
0.3313290117137951
0.3052391105655759
0.2136441371361653
0.1195473792114818
0.1823541012060301
0.169032749286829
0.1594525487124114
0.1533862925671708
0.1494503825326112
0.1478426632852533
0.1488668721670111
0.1516461412360519
0.1574568500118032
0.1668215251165759
0.1798463780951694
0.1981344970879786
0.2229249918530663
0.259598564235232
0.3097542137963273
0.3262317665415805
0.2895557470323573
0.2036682977318154
0.1156141607551078
0.1812527558260761
0.16814348032853
0.1587222111635209
0.152555912780383
0.1488580886017239
0.147503917014512
0.1486295091898021
0.1518224567312608
0.1581046323693473
0.1677638030107767
0.1810405680251032
0.1996399679162021
0.2258009744627905
0.2666560165337782
0.3165353368923447
0.3273116159174719
0.283840447457538
0.1954009408216511
0.1113665078322244
0.1798847165078483
0.1672822100170522
0.1576683768349023
0.1516872418102589
0.1484446329898543
0.1470366636520212
0.1481608033004066
0.1519074354809748
0.1585283740279444
0.1684600111735226
0.1823408654374325
0.2016046164900174
0.2284903241693288
0.2725586205165287
0.3228810479958214
0.3302705433042558
0.2816749809348861
0.1886988342193911
0.1065238462238199
0.1782697630439864
0.1657740026276269
0.1561669351250879
0.1506961998546712
0.1478559573467993
0.1464792971534871
0.1476667213654943
0.1518299331396403
0.1588934533659722
0.1690521975490005
0.1836800200935336
0.203709469764813
0.2309958437001129
0.2770696778547385
0.3288025884215046
0.3328182752673429
0.2801167103749197
0.1845451619890061
0.1032926299098509
0.1766969271541808
0.1640996357596884
0.1549736834852013
0.1498170539129016
0.1473313535881457
0.1461760681112619
0.1474793663788893
0.1516748131468185
0.1590100918110368
0.1693524076030536
0.1844307898728279
0.2050141453519195
0.2332015666985446
0.2810669424604041
0.3333023562675043
0.3338618974540648
0.2776287034010227
0.1813062400084129
0.1011370359758053
0.1753424529955037
0.1627555537845381
0.1540364356320604
0.1491006242002824
0.1467884792974511
0.1458146050460208
0.1472439667464748
0.1515409720067951
0.1590522161346513
0.1695031740486071
0.1848338029387544
0.205847234268596
0.2353360221374741
0.2835784261334628
0.3357603840820677
0.3349143700827615
0.2746323735258565
0.1771376648693888
0.0985662534909721
0.1740949388141191
0.1613650529333822
0.1531320767596863
0.1484620382073002
0.1462127255699303
0.1455711528276525
0.147325065457944
0.1517865186682143
0.1592391941341802
0.1696913808330557
0.1851032836947717
0.2067226603019131
0.2372414009103603
0.2859946126705472
0.337059624515925
0.333790114426614
0.2726877793000054
0.1752506313517816
0.0965561729444599
0.1725397317789367
0.1598153218774127
0.1521741419831811
0.1479244722987753
0.145927390804957
0.1454601757959035
0.147554717014036
0.1520851103289135
0.1595710170345086
0.169921710080949
0.1854950860866938
0.2078166717398011
0.2395461856280994
0.2887019800053317
0.3364294344811528
0.3313652360377392
0.2702546780732291
0.1742531624523209
0.095376835506972
0.1706758597581681
0.1581366575208079
0.1511074754331302
0.1474344521829972
0.1458059330730383
0.1454478598748607
0.1476125103430217
0.151988978706681
0.1598690562802442
0.1702521638743087
0.1857970907602498
0.2086128251489407
0.2421888472517571
0.291900956702944
0.3349369623464182
0.3282500090397698
0.2667464607415649
0.1719760264178591
0.0945143842764321
0.1688047438721394
0.1566558286697569
0.1501190775437043
0.1468303819368633
0.145619727766482
0.1455015724730282
0.1476276124223532
0.1518213576586051
0.1597709246854924
0.170319962775554
0.1857911634519141
0.2087042702021974
0.2434560993777533
0.2942678621176149
0.3341658636360723
0.3245218564806413
0.2641921542018466
0.1706005764056789
0.0940526600917837
0.1672296628746126
0.1556975703856734
0.1493821061605538
0.1463093113604826
0.1454508753736121
0.1454723723179913
0.147663107860352
0.151721655992963
0.159532114200131
0.1704370155806881
0.185782039152399
0.2088384391069254
0.2442415938288501
0.2948921043708144
0.3321102799041108
0.3199450677293569
0.2611615798111557
0.1690752948630788
0.0937229203236596
0.1657874720050051
0.15480285356266
0.1488127456034206
0.1458482108098502
0.1451116888627861
0.1454992529455036
0.1477874412170479
0.1517343825160455
0.159660593695836
0.1708902962291924
0.1859494142940724
0.2090760020904971
0.2447506988240336
0.2943308314145932
0.3299938694762996
0.3169024527319645
0.258033830883621
0.1665202611680613
0.0928810390397769
0.1640845841743027
0.1535892707556685
0.148033757490868
0.1452797178663079
0.1447243555988695
0.1454980828766538
0.1477798625904994
0.1518049491305857
0.1596687425222042
0.1708609619282874
0.1859026229296647
0.2087662819618368
0.2443785142712676
0.294463460115885
0.3300874097237274
0.3157899800411115
0.2555674991504691
0.1642419033179414
0.0915363848770669
0.1626018603490698
0.1524117768686591
0.1471243317351893
0.1447318595339999
0.1444403439420273
0.1455203929120784
0.1478152443682238
0.1519104689568198
0.1596306660426838
0.170898926224756
0.1858459132513971
0.2087407247144705
0.2444042515456072
0.2946725885455004
0.3282235975095832
0.3121784522883621
0.2527186229169293
0.1626025743523864
0.0906933154005384
0.1660505089818487
0.1613898326934056
0.1519950713159032
0.1407246072873637
0.131908263670612
0.1237225871002568
0.1160110289111473
0.1092619217415529
0.1037986399620497
0.0995311200453473
0.0965878325555017
0.0953761484404253
0.0951483927083325
0.0962287805931847
0.0988801665723332
0.1023619061262731
0.1073223847639851
0.1134832780728008
0.1201376848900932
0.158718686619386
0.1517149623984007
0.1386938555994737
0.1262824846869772
0.1179091649881345
0.1108426704527146
0.105612656287079
0.1017648612470654
0.0994655193648316
0.0989589339765882
0.100750434667065
0.1047632389326294
0.110120568406482
0.1164355480345104
0.1236347469656736
0.1308350469423664
0.1383100724716776
0.1459421405721437
0.1527139750889151
0.1518145998321826
0.1427188610594077
0.1274180606868392
0.1157098266581414
0.1091496859535022
0.1047132935413867
0.1028832586642033
0.1033213545191724
0.1059342111996148
0.1110985603036308
0.1189252272024727
0.1281456948880449
0.1381992467727754
0.148313015161264
0.1576850900146751
0.1658648574061093
0.1723118043305598
0.1774113004245415
0.1815624016689495
0.1460364420680362
0.1352964016369444
0.1187180008112403
0.1080346245844523
0.1032846686662738
0.1019700317761304
0.1043698826391887
0.1097770828574978
0.1171290393988516
0.1263299889710392
0.1378850369598387
0.1497600189428394
0.1613461485833296
0.1716733768038405
0.1792090706600196
0.1850001404702681
0.1892092127047328
0.1925784115902246
0.1958563969042709
0.1403158612164108
0.1275283776039442
0.111486851030752
0.1028979406804977
0.1007575355240352
0.1033720675075159
0.1104987967301011
0.1205365116581253
0.1321599195782603
0.1449627467517643
0.1583791559182223
0.1706009021341005
0.1813792650134391
0.1901726706150877
0.1960469242403595
0.200333395517979
0.2035279668203627
0.2055852273984973
0.2068064833389715
0.1334917743958203
0.1198421217889129
0.1051999790721428
0.1003082393234599
0.102800929372449
0.1102059282154455
0.1216125517710772
0.1357611031807195
0.1504666055323549
0.1649741731767985
0.1782685104146265
0.1892324350430556
0.1980228065781379
0.2039170559428476
0.2074889129408502
0.2095175789211915
0.2099282178592121
0.2093156263797259
0.2076388141492965
0.1280786697116237
0.113865678147505
0.1012829275629688
0.1018095766356765
0.1094232403198573
0.121335457450249
0.1363653731887975
0.1525758026851753
0.168290283593178
0.1819689125151395
0.1932754056077099
0.2017536345029225
0.2071644308061927
0.2098668229879506
0.210385342363633
0.2093590014412057
0.2067768779626347
0.203250283768768
0.1985682959447095
0.1232540986426542
0.1089335199323737
0.1012647069593824
0.1070407014086031
0.1184487703840776
0.1339469853334215
0.1514060857539735
0.1676305943854628
0.1820803546980033
0.1934861483793003
0.2020695328800166
0.2072086097054116
0.2084749277908323
0.2078964317192771
0.2056308929228393
0.2019481211479985
0.1969237830204862
0.1907500324358485
0.1836096170815373
0.1192041786120438
0.1071149836457086
0.1043871058274675
0.1146239997431542
0.129250492959307
0.1463881869281508
0.1642349728477176
0.1798957230584062
0.1917609914783661
0.199846823060516
0.2049248176487312
0.2065165098455122
0.2047846443587963
0.2012969211887775
0.1965083151328703
0.1906249863062115
0.183740216299265
0.176049226956083
0.1676666167613973
0.1158459816022766
0.1067528919613902
0.1092843754802011
0.1232462494854521
0.1397991779352008
0.1574328466907826
0.1740247125088224
0.1875790951396527
0.1969644656055943
0.2022381191178714
0.2035717707287037
0.2016257093723547
0.1977746254337654
0.1923831336155221
0.1857059472960945
0.1786185488672306
0.1707800573410562
0.1624446181225857
0.1535780034038537
0.1131284175375005
0.1077853324175547
0.1151985223777428
0.1315821709686897
0.1490989446644802
0.1662285158858474
0.1803158194133503
0.1910213839734908
0.1980988205058597
0.2007873509815423
0.1991303925823336
0.1951585778048183
0.1894253116184016
0.1825023442147618
0.1751926995124442
0.1675813404939662
0.1596067054298879
0.1512113071391108
0.1426791671237975
0.1121740881606117
0.1101379761020159
0.1207399134468728
0.1380301447727197
0.1555730309261788
0.171425057066544
0.183236619085645
0.1920357650067179
0.1966283855258932
0.1966802063664334
0.1932635773881532
0.187960095051196
0.1810219218560345
0.1734027856684734
0.1659614162910951
0.1583043143841663
0.1506668961070465
0.1429351797995195
0.1355127724243436
0.1122023123980504
0.11264672822514
0.1259501065479247
0.143437499486743
0.1600487631068193
0.1742393150796874
0.1842428766580103
0.1907478396951279
0.193082849898095
0.1914579710251807
0.186990721335842
0.1806675439234327
0.173376399528422
0.1660439573794006
0.1586961378250532
0.1513620780200966
0.144628599531791
0.1381923737879634
0.1320993702262849
0.1126167012477533
0.1154045697809204
0.130260518897191
0.1475059695481735
0.1628648138014584
0.1751943351688782
0.1835451326273168
0.188046859678379
0.1889001699799379
0.1859813035252497
0.1807159723744087
0.1741022112467176
0.1669923378774299
0.1601075492419705
0.1532604654654626
0.1469605355363952
0.1415014276739207
0.1366727076423481
0.1322315491222573
0.1134041400741654
0.117796455914011
0.1331525168649144
0.1495189645533658
0.1635962908542695
0.1745810620986112
0.1817105301346616
0.1847339698429617
0.184434685596854
0.1809209198801141
0.1754736197308986
0.1688250447113764
0.1619719888717701
0.1556441415058553
0.1498147227191249
0.1449242956306161
0.141104706015448
0.1380786016055507
0.1362210138058619
0.114261128536963
0.1195409173212564
0.1353505672624882
0.1502679478509412
0.1631973982105568
0.1731179851342836
0.1790543519146589
0.181453231203462
0.180207843568182
0.1764443916604996
0.1712422258683122
0.1646972022899561
0.1582753535186672
0.1527921069560613
0.1483504370704218
0.1450496949605809
0.143015396282959
0.1424747913547068
0.144446950378756
0.1149724625949715
0.1207651687797213
0.1367763979263477
0.1502625326533997
0.1624624294491951
0.1712789528265713
0.176180231024445
0.178105782809302
0.1763556350619893
0.1727536961948279
0.1675295582080864
0.1613364890226702
0.1558552240625346
0.1515786853705863
0.1485211129466033
0.147101972782075
0.1472859758687553
0.1502748516513584
0.1556341501206533
0.115260673881895
0.1215664971566073
0.1378004071208168
0.1502660114098367
0.1612073763141258
0.1692856583666341
0.1738663929284487
0.1747822874898068
0.1725629723992205
0.1694264180097779
0.1643313837850853
0.158904946812007
0.154516489876461
0.1517452461109998
0.1503632726679233
0.1509993683286972
0.1544257920649173
0.1617604761819477
0.1675289763456098
0.1154755560741461
0.121976380141239
0.1378659896164377
0.1498574590168372
0.1597460548274454
0.1667585986823629
0.1712509889293566
0.1717800963880708
0.1696212730116102
0.1666557373394362
0.1618976935066463
0.1575158967655623
0.1544057214627759
0.1530301340995986
0.1533389884196875
0.1567084206360829
0.1643899860520434
0.1752884595326908
0.1765607914993217
0.1158590171211433
0.1224029776745666
0.1372427810905261
0.1487553379570388
0.1582855563075283
0.1644391899313126
0.1681796304565886
0.1686295100214806
0.1670704559983677
0.1642107820297219
0.1601932886373468
0.1571707240466343
0.1555934008395889
0.1556114937120462
0.1577379212089462
0.1643593135463722
0.1771355115125814
0.1888376613443189
0.1819439706803221
0.1159370074698415
0.1225935151863008
0.1368535859527848
0.1477646010935288
0.156774665293176
0.1622891644712717
0.1654635857323105
0.1662480260937674
0.1648351871967779
0.1621399057503082
0.1591202864459609
0.1571820825274298
0.1570958805301059
0.1591709466022499
0.1643894829505225
0.1747625668394637
0.1915382543126451
0.2021143401087061
0.1812319258810145
0.1159564233689976
0.1225690199909605
0.1368854010209353
0.1471386031282512
0.155249816531233
0.1605444883320827
0.163405394499199
0.1644388514418416
0.1630681732132721
0.1607702225746172
0.1587936485552535
0.1578915931981021
0.1590656223870122
0.163407812940263
0.171779742913301
0.1871479764531627
0.2082154689386056
0.2165374321352
0.1693061640324084
0.116445361945728
0.1224696252287246
0.1364163209669166
0.146131905538451
0.1533952757787281
0.1587112011061707
0.1615388568852006
0.162228274694733
0.1613791796024886
0.1598364578404405
0.1587543338694503
0.159387100873164
0.162305513337523
0.1687544389169873
0.1810077697706624
0.2021843151396418
0.2246967621630434
0.2190775884864987
0.1543598424917761
0.1173504556749348
0.1226669804019598
0.1356971155967779
0.1450367758919587
0.151989269242833
0.1567918613154892
0.1594530662909414
0.1601473716643924
0.1598024020938084
0.1593516750770441
0.1592114902383225
0.1612496415398377
0.1661240318165009
0.1749690123273531
0.1920242779486982
0.2182142292559167
0.2386114580140809
0.2138499100093472
0.1428476530893948
0.1185874502724249
0.1233883232950193
0.1356728322470015
0.1444528547906439
0.1510625844141309
0.1553676738383926
0.1577078133096068
0.1585723101820207
0.1588544042843323
0.1593355548741509
0.1604916834699067
0.1637653936300687
0.1702627703350126
0.1827565020305098
0.2045659115280658
0.2326286581043255
0.2490108118404821
0.2126690303807365
0.1318729470805099
0.1199762331166051
0.1241283575292839
0.1359261937982364
0.1440880096178307
0.1501049102066741
0.1540739260927767
0.1563519746841809
0.1573793578922587
0.1583791243795215
0.1595239211145197
0.1617625562147839
0.1664595566299974
0.1744670001691836
0.1904186210877141
0.2164705084658654
0.245525762255415
0.2504346832741709
0.2025556653005663
0.120975040258976
0.1219488957524375
0.125218619429494
0.1360067723120903
0.1434897407035501
0.1491577779185101
0.1528042450674027
0.1551710509331456
0.1566190083542308
0.1580908463386173
0.1597015695843555
0.1630623993274902
0.1695541809714296
0.1795341298753507
0.1979227904675906
0.2269464349947289
0.2577301018127549
0.2530522566745921
0.192669485015546
0.1117361540538662
0.1243380993580779
0.1265388511482846
0.1360766884688311
0.1428607133590713
0.1480883221658964
0.1517121097110927
0.1540491422653591
0.1559364669108771
0.1579106428269252
0.1599655167983571
0.1646592652303695
0.1726515147723975
0.1850984829938772
0.2068303674061629
0.2395021011898423
0.2718254393560467
0.2604488746875478
0.1892796911612192
0.1068399453609624
0.1264870102276268
0.1278350324289489
0.1363795566363893
0.1424460704838977
0.1471125729340945
0.1508979549576753
0.1531752429831857
0.1553353037638051
0.1574806535846478
0.160190432945533
0.1659094783471482
0.1752204376348874
0.1905440261888054
0.2150924484392689
0.2504663587781823
0.2800932809523164
0.2614731475718226
0.1855336662554925
0.1042273505068707
0.128534592805175
0.1294631627074838
0.1368902091718668
0.1421643185351259
0.1463908100022257
0.1500429278366238
0.1524631458420497
0.1549453890390181
0.1571012301269334
0.1604671160473328
0.1672784557610185
0.1783844598972447
0.1965167013902911
0.2224646896690196
0.2596612596163377
0.2813070978010725
0.2528270621315516
0.1778010755591266
0.100784567686977
0.1307209656906664
0.1311747368777766
0.1372830916521233
0.1418223047983782
0.1456274371933476
0.1489149822142608
0.1516220240602754
0.1545570287639924
0.1571910831638943
0.1610720771886588
0.1688544325942017
0.1813743414347677
0.201046075553814
0.2300203310034283
0.2704244670161977
0.2831783986532805
0.2445087215104503
0.1698373677876802
0.0974401602459683
0.133300252673019
0.1329399596161655
0.1379673808638927
0.1417088320519856
0.1450784366668055
0.1479828203988848
0.1508180035536949
0.1541250842203679
0.157468537676667
0.1620648576876658
0.1706859443554121
0.1841221196459467
0.2048937307669925
0.2381110563102287
0.2812171015674863
0.2885533504059637
0.2437463785497871
0.1657682200908778
0.0949831999868066
0.1363434296133591
0.1348169138121092
0.1391127267428565
0.1418192976323832
0.1444867743736467
0.1473528572594649
0.1502260224485884
0.1537223908392524
0.1576036637301395
0.1630440081610985
0.1726190028670414
0.1874731147187439
0.2099533241276766
0.245564781167063
0.2895042280702556
0.295477605848325
0.2454237757628975
0.1627374568521506
0.0937153865512895
0.1393416465736391
0.1365030303552552
0.1397958237742542
0.1419026986130539
0.1440793206696174
0.1471167581267246
0.1499745009337938
0.1533462850102404
0.1575975501790318
0.1638993266444332
0.174052134533243
0.1904108568872473
0.2143228870246654
0.2516391887360878
0.2954167367924252
0.300143861308998
0.247937149018271
0.1608179106595907
0.0921985049873066
0.1421255151860019
0.1381460758235623
0.1402384369091328
0.1420515879842094
0.1441047270503905
0.1469459525616264
0.1497831198972979
0.153123637594384
0.1578441391835943
0.1651163354245739
0.1757962886018165
0.1931871662623894
0.2175158377999936
0.2568038976379198
0.3011441614842996
0.3045294444137197
0.2512471255482453
0.1603706594139295
0.0908651678861283
0.1445643056517804
0.1398217607138082
0.1410088590798282
0.1424426027105451
0.1440545723502311
0.1464099081568862
0.1494645995869135
0.1530013309722262
0.1582263814374405
0.1661017412173608
0.1776125210787558
0.1956845703558734
0.220360515651248
0.2620160977153256
0.3079359152005986
0.3086374345403468
0.2520738685290247
0.1603998653905531
0.0906234827993332
0.1468743996085495
0.1415480532155413
0.1417283343928083
0.1428642403006307
0.143892091117956
0.145957565321404
0.1490562665646629
0.1527413084436196
0.1583181387630894
0.1666744342971345
0.178855219673832
0.1978753011013502
0.2240114627244745
0.2670017742615789
0.313021852254924
0.3120324912115027
0.2533658162346651
0.1611691583722158
0.0910387196998196
0.1494271114991583