/*--------------------------------*- C++ -*----------------------------------*\
| =========                 |                                                 |
| \\      /  F ield         | OpenFOAM: The Open Source CFD Toolbox           |
|  \\    /   O peration     | Version:  2112                                  |
|   \\  /    A nd           | Website:  www.openfoam.com                      |
|    \\/     M anipulation  |                                                 |
\*---------------------------------------------------------------------------*/
FoamFile
{
    version     2.0;
    format      ascii;
    arch        "LSB;label=32;scalar=64";
    class       volScalarField;
    location    "0.1";
    object      p;
}
// * * * * * * * * * * * * * * * * * * * * * * * * * * * * * * * * * * * * * // 
 
dimensions      [0 2 -2 0 0 0 0];
 
internalField   nonuniform List<scalar> 
32051
(
4.45351293
4.45351292
4.45351292
4.45351292
4.45351292
4.45351292
4.45351292
4.45351292
4.45351292
4.45351292
4.45351291
4.45351291
4.45351291
4.45351291
4.45351291
4.45351291
4.45351291
4.4535129
4.4535129
4.4535129
4.4535129
4.4535129
4.4535129
4.4535129
4.45351289
4.45351289
4.45351289
4.45351289
4.45351289
4.45351288
4.45351288
4.45351288
4.45351288
4.45351288
4.45351287
4.45351287
4.45351287
4.45351287
4.45351286
4.45351286
4.45351286
4.45351286
4.45351285
4.45351285
4.45351285
4.45351284
4.45351284
4.45351284
4.45351283
4.45351283
4.45351283
4.45351282
4.45351282
4.45351281
4.45351281
4.4535128
4.4535128
4.45351279
4.45351278
4.45351278
4.45351277
4.45351276
4.45351275
4.45351274
4.45351273
4.45351272
4.45351271
4.4535127
4.45351268
4.45351267
4.45351265
4.45351263
4.4535126
4.45351258
4.45351254
4.45351251
4.45351247
4.45351242
4.45351236
4.45360703
4.45360703
4.45360703
4.45360703
4.45360704
4.45360704
4.45360704
4.45360704
4.45360704
4.45360705
4.45360705
4.45360705
4.45360705
4.45360705
4.45360706
4.45360706
4.45360706
4.45360707
4.45360707
4.45360707
4.45360708
4.45360708
4.45360708
4.45360709
4.45360709
4.4536071
4.4536071
4.45360711
4.45360712
4.45360712
4.45360713
4.45360714
4.45360714
4.45360715
4.45360716
4.45365658
4.45370599
4.45370598
4.45370597
4.45370597
4.45370596
4.45370595
4.45370595
4.45370594
4.45370593
4.45370592
4.45370592
4.45370591
4.4537059
4.45370589
4.45370588
4.45370587
4.45370586
4.45370585
4.45370584
4.45370582
4.45370581
4.4537058
4.45370578
4.45370577
4.45370575
4.45370573
4.45370571
4.45370569
4.45370567
4.45370565
4.45370562
4.45370559
4.45370556
4.45370553
4.45370549
4.45370545
4.4537054
4.45370535
4.45370529
4.45370523
4.45370515
4.45370507
4.45370498
4.45370634
4.45370634
4.45370634
4.45370635
4.45370635
4.45370635
4.45370636
4.45370636
4.45370637
4.45370637
4.45370638
4.45370638
4.45370639
4.4537064
4.4537064
4.45370641
4.45370642
4.45370642
4.45370643
4.45370644
4.45370645
4.45370646
4.45370647
4.45370648
4.45370649
4.4537065
4.45370651
4.45370653
4.45370654
4.45370655
4.45370657
4.45370658
4.4537066
4.45370662
4.45370664
4.45375607
4.45380549
4.45380549
4.4538055
4.45380551
4.45380551
4.45380552
4.45380553
4.45380554
4.45380555
4.45380557
4.45380558
4.45380559
4.45380561
4.45380562
4.45380564
4.45380566
4.45380568
4.45380571
4.45380574
4.45380576
4.4538058
4.45386006
4.45391428
4.45391425
4.45391421
4.45391417
4.45391413
4.45391409
4.45391404
4.45391398
4.45391392
4.45391386
4.45391378
4.4539137
4.45391361
4.45391351
4.4539134
4.45391327
4.45391312
4.45391295
4.45391276
4.45391253
4.45391226
4.45380564
4.45380565
4.45380565
4.45380566
4.45380567
4.45380567
4.45380568
4.45380569
4.4538057
4.4538057
4.45380571
4.45386047
4.45391522
4.45391523
4.45391523
4.45391524
4.45391524
4.45391524
4.45391525
4.45391525
4.45391526
4.45391526
4.45391527
4.45391528
4.45391528
4.45391529
4.4539153
4.45391531
4.45391532
4.45391533
4.45391534
4.45391535
4.45391536
4.45391537
4.45391539
4.4539154
4.45391542
4.45391544
4.45391545
4.45391547
4.45391549
4.45391552
4.45391554
4.45391557
4.45391559
4.45391562
4.45391565
4.45391569
4.45391572
4.45391576
4.45391581
4.45391586
4.45391591
4.45391596
4.45391602
4.45391609
4.45391616
4.45397046
4.45402474
4.45402476
4.45402478
4.45402481
4.45402483
4.45402487
4.45402491
4.45402495
4.45402501
4.45402507
4.45402514
4.45402523
4.45402533
4.45408088
4.45413626
4.454136
4.4541357
4.45413535
4.45413494
4.45413445
4.45413388
4.4539154
4.45391541
4.45391542
4.45391543
4.45391544
4.45391545
4.45391545
4.45391546
4.45391547
4.45391548
4.4539155
4.45397026
4.45402501
4.45402502
4.45402503
4.45402503
4.45402504
4.45402505
4.45402506
4.45402507
4.45402508
4.45402509
4.4540251
4.45402511
4.45402512
4.45402514
4.45402515
4.45402516
4.45402518
4.4540252
4.45402521
4.45402523
4.45408233
4.45413943
4.45413943
4.45413944
4.45413945
4.45413946
4.45413947
4.45413948
4.45413949
4.4541395
4.45413952
4.45413953
4.45413955
4.45413957
4.45413959
4.45413961
4.45413963
4.45413966
4.45413969
4.45413972
4.45413975
4.45413979
4.45413983
4.45413988
4.45413993
4.45413999
4.45414005
4.45414012
4.4541402
4.45414028
4.45414038
4.45414049
4.45414062
4.45414076
4.45414092
4.45414111
4.45414132
4.45414157
4.45414185
4.45419762
4.45425325
4.45425329
4.45425334
4.45425341
4.45425351
4.45425365
4.45425384
4.45402517
4.45402518
4.45402519
4.4540252
4.45408242
4.45413964
4.45413964
4.45413965
4.45413966
4.45413967
4.45413967
4.45413968
4.45413969
4.4541397
4.45413971
4.45413972
4.45413973
4.45413974
4.45413975
4.45413977
4.45413978
4.4541398
4.45413981
4.45413983
4.45413984
4.45413986
4.45413988
4.4541399
4.45413992
4.45413995
4.45413997
4.45414
4.4541971
4.45425421
4.45425422
4.45425424
4.45425425
4.45425427
4.45425429
4.45425431
4.45425434
4.45425436
4.45425439
4.45425442
4.45425445
4.45425448
4.45425452
4.45425456
4.45425461
4.45431548
4.45437634
4.45437635
4.45437636
4.45437638
4.4543764
4.45437642
4.45437644
4.45437647
4.4543765
4.45437654
4.45437658
4.45437662
4.45437668
4.45437674
4.45437681
4.45437689
4.45437699
4.4543771
4.45437723
4.45437738
4.45437757
4.45437778
4.45437804
4.45437836
4.45437874
4.45437921
4.45437979
4.45438052
4.45438143
4.45413982
4.45413983
4.45413984
4.45413986
4.45419708
4.4542543
4.45425431
4.45425432
4.45425433
4.45425434
4.45425435
4.45425436
4.45425437
4.45425438
4.45425439
4.45425441
4.45425442
4.45425444
4.45425445
4.45425447
4.45425448
4.4542545
4.45425452
4.45431566
4.4543768
4.45437681
4.45437682
4.45437683
4.45437685
4.45437687
4.45437688
4.4543769
4.45437692
4.45437694
4.45437696
4.45437699
4.45437701
4.45437704
4.45437707
4.4543771
4.45437714
4.45437718
4.45437721
4.45437726
4.4543773
4.45437735
4.4543774
4.45437746
4.45437752
4.45443842
4.4544993
4.45449933
4.45449937
4.45449941
4.45449946
4.45449951
4.45449957
4.45449964
4.45449971
4.45449979
4.45449988
4.45449998
4.4545001
4.45456613
4.45463209
4.45463209
4.45463209
4.4546321
4.45463211
4.45463213
4.45463216
4.45463221
4.45463226
4.45463234
4.45463245
4.4546326
4.45463279
4.45463305
4.45463341
4.45425448
4.45425449
4.4543157
4.45437691
4.45437692
4.45437693
4.45437694
4.45437695
4.45437696
4.45437697
4.45437699
4.454377
4.45437701
4.45437703
4.45437704
4.45437706
4.45437708
4.4543771
4.45437711
4.45437713
4.45437716
4.45437718
4.4543772
4.45443834
4.45449948
4.4544995
4.45449952
4.45449954
4.45449956
4.45449958
4.4544996
4.45449963
4.45449965
4.45449968
4.45449971
4.45449974
4.45449978
4.45449981
4.45449985
4.45456657
4.45463327
4.4546333
4.45463332
4.45463335
4.45463337
4.45463341
4.45463344
4.45463348
4.45463352
4.45463356
4.45463361
4.45463367
4.45463373
4.45463379
4.45463386
4.45463394
4.45463403
4.45463412
4.45463423
4.45463435
4.45463448
4.45463463
4.4546348
4.45470088
4.45476691
4.45476698
4.45476707
4.45476716
4.45476728
4.45476742
4.45476759
4.4547678
4.45476805
4.45476835
4.45476873
4.4547692
4.45483636
4.45490307
4.45490264
4.45437711
4.45437712
4.45443833
4.45449954
4.45449955
4.45449957
4.45449958
4.45449959
4.4544996
4.45449962
4.45449963
4.45449965
4.45449967
4.45449968
4.4544997
4.45449972
4.45449974
4.45449976
4.45449978
4.45456664
4.4546335
4.45463352
4.45463353
4.45463355
4.45463357
4.45463359
4.45463361
4.45463364
4.45463366
4.45463369
4.45463371
4.45463374
4.45463377
4.45463381
4.45463384
4.45463388
4.45463392
4.45463397
4.45463401
4.45470073
4.45476745
4.45476748
4.45476751
4.45476755
4.45476759
4.45476763
4.45476768
4.45476773
4.45476778
4.45476784
4.45476791
4.45476798
4.45476806
4.45483818
4.45490828
4.45490832
4.45490836
4.4549084
4.45490845
4.45490851
4.45490858
4.45490865
4.45490874
4.45490884
4.45490896
4.45490909
4.45490924
4.45490942
4.45490963
4.45490988
4.45491017
4.45491051
4.45491093
4.45491143
4.45491204
4.45491279
4.4549803
4.45504742
4.45504752
4.45449974
4.45449975
4.45456667
4.45463359
4.4546336
4.45463361
4.45463363
4.45463364
4.45463366
4.45463367
4.45463369
4.4546337
4.45463372
4.45463374
4.45463376
4.45463378
4.4546338
4.45463383
4.45463385
4.45470072
4.45476757
4.45476759
4.45476761
4.45476763
4.45476766
4.45476768
4.4547677
4.45476773
4.45476776
4.45476779
4.45476782
4.45476786
4.45476789
4.45476793
4.45483836
4.45490879
4.45490882
4.45490884
4.45490887
4.45490891
4.45490894
4.45490898
4.45490902
4.45490907
4.45490911
4.45490917
4.45490922
4.45490929
4.45490935
4.45490942
4.4549095
4.45490959
4.45490968
4.45497982
4.45504994
4.45505
4.45505006
4.45505013
4.45505021
4.45505029
4.45505039
4.45505051
4.45505063
4.45505078
4.45505094
4.45505113
4.45505135
4.45512666
4.45520186
4.45520188
4.45520192
4.45520198
4.45520205
4.45520216
4.4552023
4.4552025
4.45520276
4.45520312
4.4552036
4.45463378
4.4546338
4.45470072
4.45476764
4.45476765
4.45476766
4.45476768
4.45476769
4.45476771
4.45476773
4.45476774
4.45476776
4.45476778
4.4547678
4.45476782
4.45476785
4.45476787
4.4547679
4.45483843
4.45490897
4.45490899
4.45490901
4.45490903
4.45490905
4.45490908
4.4549091
4.45490913
4.45490916
4.45490919
4.45490923
4.45490926
4.4549093
4.45490934
4.45490938
4.45497982
4.45505025
4.45505028
4.45505031
4.45505035
4.45505039
4.45505043
4.45505047
4.45505052
4.45505057
4.45505063
4.45505069
4.45505076
4.45505083
4.4550509
4.45512718
4.45520343
4.45520348
4.45520353
4.45520358
4.45520365
4.45520372
4.45520379
4.45520388
4.45520398
4.45520409
4.45520421
4.45520435
4.4552045
4.45520468
4.45520488
4.45520511
4.45520537
4.45528073
4.455356
4.45535609
4.45535621
4.45535636
4.45535655
4.45535679
4.45535709
4.45535748
4.45535797
4.45535862
4.45535947
4.45476783
4.45476784
4.45476786
4.45483845
4.45490904
4.45490906
4.45490907
4.45490909
4.4549091
4.45490912
4.45490914
4.45490916
4.45490918
4.4549092
4.45490923
4.45490925
4.45490928
4.4549093
4.45497984
4.45505038
4.4550504
4.45505042
4.45505045
4.45505047
4.4550505
4.45505053
4.45505056
4.45505059
4.45505062
4.45505066
4.4550507
4.45505074
4.45505078
4.45512729
4.45520378
4.45520381
4.45520385
4.45520389
4.45520392
4.45520397
4.45520401
4.45520406
4.45520411
4.45520417
4.45520423
4.4552043
4.45520437
4.45520445
4.45520453
4.45528081
4.45535708
4.45535713
4.45535719
4.45535726
4.45535733
4.45535741
4.4553575
4.45535761
4.45535772
4.45535785
4.45535799
4.45535815
4.45535833
4.45535853
4.45543903
4.45551946
4.45551954
4.45551963
4.45551975
4.45551989
4.45552007
4.45552028
4.45552055
4.45552088
4.4555213
4.45552182
4.45552248
4.45552334
4.45552444
4.45490922
4.45490924
4.45490926
4.45497985
4.45505043
4.45505045
4.45505047
4.45505048
4.4550505
4.45505052
4.45505054
4.45505056
4.45505058
4.45505061
4.45505063
4.45505066
4.45505068
4.45505071
4.45512731
4.45520392
4.45520394
4.45520396
4.45520399
4.45520401
4.45520404
4.45520407
4.4552041
4.45520414
4.45520417
4.45520421
4.45520425
4.45520429
4.45520434
4.45528084
4.45535734
4.45535738
4.45535742
4.45535745
4.4553575
4.45535754
4.45535759
4.45535764
4.4553577
4.45535776
4.45535783
4.4553579
4.45535798
4.45535806
4.45543926
4.45552044
4.4555205
4.45552056
4.45552063
4.4555207
4.45552078
4.45552087
4.45552097
4.45552108
4.45552121
4.45552134
4.4555215
4.45552168
4.45552187
4.4555221
4.45560262
4.45568307
4.45568317
4.4556833
4.45568345
4.45568364
4.45568386
4.45568413
4.45568447
4.45568488
4.4556854
4.45568604
4.45568686
4.45568789
4.455769
4.45505061
4.45505063
4.45505065
4.45505067
4.45505069
4.45512735
4.455204
4.45520402
4.45520404
4.45520405
4.45520407
4.4552041
4.45520412
4.45520414
4.45520417
4.45520419
4.45520422
4.45520425
4.45528085
4.45535746
4.45535748
4.4553575
4.45535753
4.45535756
4.45535759
4.45535762
4.45535765
4.45535768
4.45535772
4.45535776
4.4553578
4.45535785
4.45535789
4.45535794
4.45543935
4.45552076
4.4555208
4.45552084
4.45552088
4.45552093
4.45552098
4.45552103
4.45552109
4.45552115
4.45552122
4.4555213
4.45552138
4.45552146
4.45560267
4.45568386
4.45568391
4.45568398
4.45568405
4.45568413
4.45568422
4.45568431
4.45568442
4.45568454
4.45568467
4.45568482
4.45568499
4.45568518
4.45568539
4.45577073
4.455856
4.4558561
4.45585622
4.45585635
4.45585652
4.45585672
4.45585696
4.45585725
4.45585761
4.45585806
4.45585861
4.4558593
4.45586017
4.45586129
4.45594249
4.45520415
4.45520417
4.45520419
4.45520421
4.45520423
4.45528088
4.45535754
4.45535755
4.45535757
4.45535759
4.45535761
4.45535763
4.45535766
4.45535768
4.45535771
4.45535773
4.45535776
4.45535779
4.45535782
4.45535785
4.45535789
4.4554394
4.4555209
4.45552093
4.45552096
4.45552099
4.45552102
4.45552106
4.4555211
4.45552114
4.45552118
4.45552122
4.45552127
4.45552132
4.45560273
4.45568414
4.45568418
4.45568422
4.45568426
4.45568431
4.45568436
4.45568442
4.45568448
4.45568455
4.45568462
4.45568469
4.45568477
4.45568486
4.45568496
4.45568506
4.45577101
4.45585694
4.45585701
4.45585709
4.45585717
4.45585727
4.45585738
4.4558575
4.45585763
4.45585778
4.45585795
4.45585813
4.45585835
4.45594369
4.45602897
4.45602906
4.45602918
4.45602932
4.45602949
4.4560297
4.45602994
4.45603025
4.45603062
4.45603107
4.45603164
4.45603236
4.45603326
4.45603442
4.45603591
4.45535769
4.4553577
4.45535772
4.45535774
4.45535777
4.45535779
4.45535781
4.45535784
4.4554394
4.45552097
4.45552099
4.45552101
4.45552103
4.45552106
4.45552108
4.45552111
4.45552114
4.45552116
4.4555212
4.45552123
4.45552126
4.45560277
4.45568428
4.4556843
4.45568433
4.45568437
4.4556844
4.45568443
4.45568447
4.45568451
4.45568456
4.4556846
4.45568465
4.4556847
4.45568476
4.45568481
4.45568488
4.45577105
4.45585722
4.45585726
4.45585731
4.45585737
4.45585743
4.45585749
4.45585756
4.45585764
4.45585772
4.4558578
4.4558579
4.455858
4.45594395
4.45602987
4.45602994
4.45603002
4.4560301
4.45603019
4.4560303
4.45603042
4.45603055
4.45603069
4.45603086
4.45603104
4.45603125
4.45603149
4.45603176
4.45603207
4.45612155
4.45621093
4.45621108
4.45621126
4.45621149
4.45621176
4.45621209
4.45621251
4.45621304
4.4562137
4.45621454
4.45621562
4.45621702
4.45552107
4.45552109
4.4555211
4.45552112
4.45552115
4.45552117
4.45552119
4.45552122
4.45560278
4.45568435
4.45568437
4.45568439
4.45568441
4.45568443
4.45568446
4.45568449
4.45568451
4.45568454
4.45568457
4.45568461
4.45568464
4.45568468
4.45568472
4.45568476
4.45577105
4.45585733
4.45585736
4.4558574
4.45585743
4.45585747
4.45585751
4.45585756
4.4558576
4.45585765
4.45585771
4.45585776
4.45585782
4.455944
4.45603016
4.45603021
4.45603025
4.45603031
4.45603036
4.45603043
4.45603049
4.45603057
4.45603064
4.45603073
4.45603082
4.45603092
4.45603103
4.45603115
4.45603128
4.45612156
4.45621182
4.45621191
4.456212
4.45621211
4.45621223
4.45621237
4.45621252
4.45621269
4.45621288
4.4562131
4.45621335
4.45621364
4.4563031
4.45639246
4.45639258
4.45639273
4.45639291
4.45639314
4.45639343
4.45639379
4.45639424
4.45639483
4.45639557
4.45639655
4.45639782
4.45568445
4.45568447
4.45568449
4.45568451
4.45568453
4.45568455
4.45568458
4.4556846
4.45568462
4.45568465
4.45568468
4.45568471
4.45577106
4.45585741
4.45585743
4.45585746
4.45585749
4.45585752
4.45585755
4.45585758
4.45585761
4.45585765
4.45585768
4.45585772
4.45594401
4.45603029
4.45603032
4.45603036
4.45603039
4.45603043
4.45603047
4.45603051
4.45603055
4.4560306
4.45603065
4.45603071
4.45603077
4.45603083
4.4560309
4.45603097
4.45603104
4.4561216
4.45621214
4.4562122
4.45621226
4.45621233
4.4562124
4.45621248
4.45621256
4.45621266
4.45621276
4.45621287
4.45621299
4.45630327
4.45639352
4.45639359
4.45639368
4.45639377
4.45639388
4.456394
4.45639413
4.45639429
4.45639446
4.45639466
4.45639489
4.45639515
4.45639545
4.4563958
4.45639621
4.45639669
4.45649109
4.45658532
4.4565855
4.45658574
4.45658605
4.45658646
4.45658699
4.45658771
4.45658866
4.45577107
4.45585746
4.45585748
4.4558575
4.45585752
4.45585754
4.45585756
4.45585758
4.45585761
4.45585763
4.45585766
4.45585769
4.45594404
4.45603039
4.45603041
4.45603043
4.45603046
4.45603049
4.45603052
4.45603055
4.45603058
4.45603061
4.45603065
4.45603068
4.45603072
4.45603077
4.45603081
4.45603086
4.45603091
4.45603096
4.45612165
4.45621232
4.45621237
4.45621241
4.45621246
4.45621251
4.45621256
4.45621262
4.45621268
4.45621275
4.45621282
4.45630337
4.45639391
4.45639396
4.45639402
4.45639408
4.45639414
4.45639421
4.45639429
4.45639438
4.45639447
4.45639457
4.45639468
4.4563948
4.45639494
4.45639508
4.45639525
4.45639542
4.45639562
4.45649125
4.45658683
4.45658695
4.45658709
4.45658725
4.45658744
4.45658765
4.4565879
4.45658819
4.45658853
4.45658893
4.45668325
4.45677738
4.45677744
4.45677754
4.45677768
4.45677789
4.45677818
4.4567786
4.4567792
4.45594406
4.45603045
4.45603047
4.45603048
4.4560305
4.45603052
4.45603054
4.45603057
4.45603059
4.45603061
4.45603064
4.45603067
4.45603069
4.45603072
4.45603076
4.45603079
4.45603082
4.45603086
4.45612163
4.45621239
4.45621242
4.45621245
4.45621248
4.45621252
4.45621256
4.45621259
4.45621264
4.45621268
4.45621273
4.45621278
4.45630346
4.45639413
4.45639417
4.45639421
4.45639425
4.4563943
4.45639435
4.4563944
4.45639446
4.45639452
4.45639459
4.45639466
4.45639473
4.45639482
4.4563949
4.456395
4.4563951
4.45639521
4.45649124
4.45658726
4.45658734
4.45658742
4.45658752
4.45658762
4.45658774
4.45658787
4.45658801
4.45658816
4.45658834
4.45668393
4.45677948
4.45677957
4.45677967
4.45677979
4.45677993
4.45678009
4.45678029
4.45678051
4.45678078
4.45678109
4.45678147
4.45678192
4.45678247
4.45678315
4.45678398
4.45678501
4.4567863
4.45688005
4.45697314
4.45603068
4.4560307
4.45603072
4.45603075
4.45603077
4.4560308
4.45612162
4.45621243
4.45621246
4.45621248
4.4562125
4.45621253
4.45621255
4.45621258
4.45621261
4.45621264
4.45621267
4.45621271
4.45630347
4.45639423
4.45639426
4.45639429
4.45639432
4.45639435
4.45639438
4.45639442
4.45639446
4.4563945
4.45639454
4.45639459
4.45639464
4.45639469
4.45639474
4.4563948
4.45639486
4.45639493
4.456395
4.45649123
4.45658744
4.4565875
4.45658756
4.45658762
4.45658768
4.45658776
4.45658783
4.45658792
4.45658801
4.4565881
4.45668413
4.45678013
4.45678019
4.45678026
4.45678034
4.45678042
4.45678052
4.45678062
4.45678074
4.45678087
4.45678101
4.45678118
4.45678136
4.45678156
4.45678179
4.45678206
4.45678235
4.45678269
4.45678308
4.45688008
4.45697696
4.45697716
4.45697741
4.45697771
4.45697808
4.45697854
4.45697912
4.45697985
4.45698077
4.45707407
4.4571666
4.45621256
4.45621258
4.4562126
4.45621262
4.45621264
4.45621267
4.45630349
4.4563943
4.45639432
4.45639434
4.45639436
4.45639439
4.45639441
4.45639444
4.45639446
4.45639449
4.45639452
4.45639455
4.45639459
4.45639462
4.45639466
4.4563947
4.45639474
4.45639478
4.45639483
4.45649117
4.45658751
4.45658755
4.45658758
4.45658762
4.45658767
4.45658771
4.45658776
4.45658781
4.45658787
4.45658793
4.45658799
4.45668421
4.45678042
4.45678047
4.45678051
4.45678057
4.45678062
4.45678068
4.45678075
4.45678082
4.4567809
4.45678098
4.45678108
4.45678117
4.45678128
4.4567814
4.45678153
4.45678167
4.45678182
4.45678199
4.45687983
4.45697764
4.45697774
4.45697787
4.456978
4.45697816
4.45697834
4.45697854
4.45697877
4.45697903
4.45697934
4.45707624
4.457173
4.45717308
4.45717318
4.45717331
4.45717349
4.45717372
4.45717401
4.45717441
4.45717493
4.45717563
4.45717657
4.45639444
4.45639445
4.45639447
4.4563945
4.45639452
4.45639454
4.45639456
4.45639459
4.45639462
4.45639464
4.45639467
4.4563947
4.45639473
4.45639477
4.45649118
4.45658758
4.45658761
4.45658764
4.45658767
4.4565877
4.45658773
4.45658777
4.4565878
4.45658784
4.45658788
4.45668422
4.45678056
4.45678059
4.45678062
4.45678066
4.45678069
4.45678073
4.45678078
4.45678082
4.45678087
4.45678092
4.45678097
4.45678103
4.4567811
4.45678116
4.45678124
4.45678131
4.4567814
4.45678148
4.45678158
4.45678168
4.45687983
4.45697796
4.45697803
4.45697811
4.4569782
4.45697829
4.4569784
4.45697851
4.45697864
4.45697878
4.45707658
4.45717435
4.45717442
4.45717449
4.45717458
4.45717469
4.4571748
4.45717494
4.4571751
4.45717528
4.45717549
4.45717574
4.45717603
4.45717638
4.45717679
4.45717728
4.45717788
4.45717861
4.4571795
4.45718061
4.457182
4.45727568
4.45736873
4.45639468
4.4563947
4.45649116
4.45658762
4.45658764
4.45658766
4.45658768
4.4565877
4.45658773
4.45658775
4.45658778
4.45658781
4.45658783
4.45658786
4.45668427
4.45678068
4.4567807
4.45678072
4.45678075
4.45678078
4.45678081
4.45678084
4.45678087
4.4567809
4.45678094
4.45678098
4.45678102
4.45678106
4.45678111
4.45678116
4.45678121
4.45678126
4.45678132
4.45678138
4.45678144
4.45687977
4.45697808
4.45697813
4.45697818
4.45697823
4.45697829
4.45697836
4.45697842
4.4569785
4.45697858
4.45697866
4.45707679
4.45717491
4.45717496
4.45717502
4.45717508
4.45717515
4.45717523
4.45717531
4.45717541
4.45717551
4.45717563
4.45717576
4.4571759
4.45717606
4.45717624
4.45717644
4.45717667
4.45717693
4.45717722
4.45717756
4.45717794
4.45727474
4.45737143
4.45737162
4.45737185
4.45737214
4.45737249
4.45737293
4.45737348
4.45737417
4.45737506
4.45746812
4.45756039
4.45658781
4.45658783
4.45668429
4.45678075
4.45678076
4.45678078
4.4567808
4.45678082
4.45678084
4.45678086
4.45678089
4.45678091
4.45678094
4.45678096
4.45678099
4.45678102
4.45678105
4.45678108
4.45678112
4.45678115
4.45678119
4.45678123
4.45678127
4.45678132
4.45687974
4.45697816
4.45697819
4.45697823
4.45697827
4.45697831
4.45697835
4.4569784
4.45697844
4.4569785
4.45697855
4.45707686
4.45717516
4.4571752
4.45717524
4.45717528
4.45717533
4.45717538
4.45717543
4.45717549
4.45717555
4.45717562
4.4571757
4.45717578
4.45717586
4.45717596
4.45717606
4.45717617
4.45717629
4.45717643
4.45717657
4.45717673
4.45717691
4.4572745
4.45737205
4.45737216
4.45737228
4.45737242
4.45737258
4.45737276
4.45737296
4.4573732
4.45737347
4.45747015
4.45756668
4.45756671
4.45756675
4.45756681
4.4575669
4.45756703
4.4575672
4.45756745
4.45756779
4.45756826
4.45756892
4.45678094
4.45678096
4.45678098
4.45678101
4.45678103
4.45678105
4.45678108
4.4567811
4.45678113
4.45678116
4.45678119
4.45678122
4.45687971
4.4569782
4.45697822
4.45697824
4.45697827
4.4569783
4.45697833
4.45697836
4.45697839
4.45697843
4.45697846
4.4569785
4.45707692
4.45717533
4.45717535
4.45717538
4.45717541
4.45717545
4.45717548
4.45717552
4.45717556
4.4571756
4.45717564
4.45717569
4.45717574
4.4571758
4.45717586
4.45717592
4.45717598
4.45717606
4.45717613
4.45717621
4.4571763
4.4571764
4.4571765
4.45727442
4.45737232
4.45737239
4.45737246
4.45737254
4.45737263
4.45737273
4.45737284
4.45737296
4.4573731
4.45747064
4.45756814
4.4575682
4.45756826
4.45756833
4.45756841
4.4575685
4.45756861
4.45756874
4.45756889
4.45756907
4.45756929
4.45756954
4.45756985
4.45757022
4.45757067
4.45757122
4.4575719
4.45757276
4.45757384
4.45757523
4.45757702
4.4568797
4.45697824
4.45697825
4.45697827
4.45697829
4.45697831
4.45697833
4.45697835
4.45697838
4.4569784
4.45697843
4.45697845
4.45707694
4.45717542
4.45717544
4.45717546
4.45717548
4.45717551
4.45717553
4.45717556
4.45717558
4.45717561
4.45717564
4.45717567
4.45717571
4.45717574
4.45717578
4.45717582
4.45717586
4.45717591
4.45717595
4.457176
4.45717606
4.45717611
4.45717617
4.45717623
4.45727433
4.45737242
4.45737247
4.45737251
4.45737257
4.45737262
4.45737268
4.45737274
4.45737281
4.45737289
4.45737297
4.45747086
4.45756874
4.45756878
4.45756882
4.45756888
4.45756893
4.457569
4.45756907
4.45756915
4.45756923
4.45756933
4.45756944
4.45756956
4.4575697
4.45756985
4.45757003
4.45757023
4.45757046
4.45757072
4.45757101
4.45757136
4.45757176
4.45757223
4.45757279
4.45757345
4.45757424
4.45766246
4.45775043
4.45775083
4.45775136
4.45775206
4.457753
4.45707697
4.4571755
4.45717552
4.45717553
4.45717555
4.45717557
4.45717558
4.4571756
4.45717562
4.45717564
4.45717566
4.45717568
4.45717571
4.45717573
4.45717576
4.45717579
4.45717581
4.45717584
4.45717588
4.45717591
4.45717594
4.45717598
4.45717602
4.45717606
4.4571761
4.45727431
4.4573725
4.45737254
4.45737257
4.4573726
4.45737264
4.45737268
4.45737272
4.45737277
4.45737281
4.45737287
4.45747095
4.45756903
4.45756906
4.45756909
4.45756912
4.45756916
4.4575692
4.45756925
4.4575693
4.45756935
4.45756941
4.45756947
4.45756954
4.45756961
4.45756969
4.45756978
4.45756987
4.45756998
4.45757009
4.45757022
4.45757036
4.45757051
4.45757068
4.45757087
4.45757108
4.45757131
4.45757158
4.45766123
4.45775082
4.45775098
4.45775116
4.45775136
4.45775161
4.4577519
4.45775224
4.45775265
4.45775315
4.45784103
4.45792859
4.45792849
4.45792841
4.45792835
4.45792835
4.45717572
4.45717574
4.45717576
4.45717578
4.4571758
4.45717582
4.45717585
4.45717587
4.45717589
4.45717592
4.45717595
4.45717597
4.457176
4.45727428
4.45737255
4.45737257
4.4573726
4.45737262
4.45737265
4.45737267
4.4573727
4.45737273
4.45737276
4.45737279
4.45737283
4.45747103
4.45756922
4.45756924
4.45756926
4.45756929
4.45756931
4.45756934
4.45756937
4.45756941
4.45756944
4.45756948
4.45756952
4.45756956
4.45756961
4.45756966
4.45756971
4.45756977
4.45756983
4.45756989
4.45756996
4.45757004
4.45757012
4.45757021
4.4575703
4.45757041
4.45757052
4.45757064
4.45757077
4.4576609
4.457751
4.45775109
4.45775118
4.45775128
4.45775139
4.45775152
4.45775166
4.45775182
4.457752
4.45784157
4.45793106
4.45793109
4.45793114
4.45793119
4.45793126
4.45793136
4.45793147
4.45793161
4.4579318
4.45793203
4.45793233
4.45793272
4.45793323
4.4579339
4.4579348
4.45737257
4.45737258
4.4573726
4.45737261
4.45737263
4.45737265
4.45737267
4.45737269
4.45737271
4.45737273
4.45737275
4.45737277
4.4573728
4.45747107
4.45756934
4.45756935
4.45756937
4.45756939
4.45756941
4.45756943
4.45756945
4.45756947
4.45756949
4.45756952
4.45756955
4.45756957
4.4575696
4.45756964
4.45756967
4.45756971
4.45756974
4.45756978
4.45756983
4.45756987
4.45756992
4.45756997
4.45757002
4.45757008
4.45757014
4.45757021
4.45757028
4.45757035
4.45766072
4.45775107
4.45775112
4.45775117
4.45775123
4.45775129
4.45775136
4.45775143
4.45775151
4.4577516
4.45775169
4.45784178
4.45793184
4.45793188
4.45793192
4.45793197
4.45793202
4.45793208
4.45793215
4.45793223
4.45793232
4.45793242
4.45793254
4.45793268
4.45793284
4.45793303
4.45793325
4.45793351
4.45793383
4.4579342
4.45793465
4.4579352
4.45793588
4.45793673
4.4579378
4.45793916
4.45794091
4.45756941
4.45756942
4.45756943
4.45756944
4.45756946
4.45756947
4.45756948
4.4575695
4.45756952
4.45756953
4.45756955
4.45756957
4.45756959
4.45756961
4.45756963
4.45756965
4.45756967
4.4575697
4.45756972
4.45756975
4.45756978
4.45756981
4.45756984
4.45756987
4.45756991
4.45756994
4.45756998
4.45757002
4.45757007
4.45757011
4.45766061
4.4577511
4.45775113
4.45775117
4.4577512
4.45775124
4.45775128
4.45775132
4.45775137
4.45775141
4.45775147
4.45775152
4.45784187
4.4579322
4.45793222
4.45793225
4.45793228
4.45793232
4.45793236
4.4579324
4.45793244
4.45793249
4.45793255
4.45793261
4.45793268
4.45793275
4.45793284
4.45793293
4.45793303
4.45793314
4.45793327
4.45793341
4.45793357
4.45793375
4.45793396
4.4579342
4.45793447
4.45793478
4.45793514
4.45793556
4.45793606
4.45793665
4.45793736
4.45793821
4.45793924
4.45794052
4.45801294
4.45808504
4.45808596
4.45756963
4.45756964
4.45756966
4.45756968
4.45756969
4.45756971
4.45756973
4.45756975
4.45756977
4.45756979
4.45756981
4.45756984
4.45756986
4.45756988
4.45756991
4.45756994
4.45756997
4.45766055
4.45775113
4.45775115
4.45775117
4.4577512
4.45775122
4.45775124
4.45775127
4.4577513
4.45775133
4.45775136
4.45775139
4.45775143
4.45784191
4.45793239
4.45793241
4.45793243
4.45793245
4.45793248
4.4579325
4.45793253
4.45793256
4.45793259
4.45793262
4.45793265
4.45793269
4.45793273
4.45793278
4.45793282
4.45793288
4.45793293
4.45793299
4.45793306
4.45793313
4.4579332
4.45793329
4.45793338
4.45793348
4.45793359
4.45793371
4.45793384
4.45793399
4.45793415
4.45793434
4.45793454
4.45793476
4.45793502
4.45793531
4.45793564
4.45800968
4.45808364
4.45808385
4.45808409
4.45808439
4.45808473
4.45808515
4.45808566
4.45808629
4.45808707
4.45815888
4.45823022
4.45823019
4.45756984
4.45756986
4.45766051
4.45775115
4.45775116
4.45775117
4.45775119
4.4577512
4.45775122
4.45775123
4.45775125
4.45775127
4.45775129
4.45775131
4.45775133
4.45775135
4.45775137
4.45784195
4.45793252
4.45793254
4.45793255
4.45793256
4.45793258
4.4579326
4.45793261
4.45793263
4.45793265
4.45793267
4.45793269
4.45793272
4.45793274
4.45793277
4.45793279
4.45793282
4.45793285
4.45793289
4.45793292
4.45793296
4.457933
4.45793304
4.45793309
4.45793314
4.45793319
4.45793325
4.45793331
4.45793337
4.45793344
4.45793352
4.4579336
4.45793369
4.45793378
4.45793388
4.45793399
4.45793412
4.45793425
4.4580088
4.45808332
4.4580834
4.45808349
4.4580836
4.45808371
4.45808384
4.45808399
4.45808415
4.45808433
4.45808454
4.45815845
4.45823227
4.4582323
4.45823235
4.45823241
4.45823248
4.45823258
4.45823271
4.45823288
4.45823311
4.45823341
4.45823381
4.45823437
4.45775132
4.45775133
4.45784197
4.4579326
4.45793261
4.45793262
4.45793263
4.45793264
4.45793265
4.45793266
4.45793268
4.45793269
4.4579327
4.45793271
4.45793273
4.45793274
4.45793276
4.45793278
4.45793279
4.45793281
4.45793283
4.45793285
4.45793287
4.45793289
4.45793292
4.45793294
4.45793297
4.457933
4.45793303
4.45793306
4.45793309
4.45793313
4.45793316
4.4579332
4.45793324
4.45793328
4.45793333
4.45793338
4.45793343
4.45793349
4.45793355
4.45793361
4.4580084
4.45808317
4.45808321
4.45808325
4.4580833
4.45808335
4.4580834
4.45808346
4.45808352
4.45808359
4.45808367
4.45808375
4.45808384
4.45815834
4.45823281
4.45823284
4.45823287
4.45823291
4.45823295
4.45823299
4.45823305
4.45823311
4.45823318
4.45823326