/*--------------------------------*- C++ -*----------------------------------*\
| =========                 |                                                 |
| \\      /  F ield         | OpenFOAM: The Open Source CFD Toolbox           |
|  \\    /   O peration     | Version:  2112                                  |
|   \\  /    A nd           | Website:  www.openfoam.com                      |
|    \\/     M anipulation  |                                                 |
\*---------------------------------------------------------------------------*/
FoamFile
{
    version     2.0;
    format      ascii;
    arch        "LSB;label=32;scalar=64";
    class       volVectorField;
    location    "0.0019";
    object      U_LES;
}
// * * * * * * * * * * * * * * * * * * * * * * * * * * * * * * * * * * * * * // 
 
dimensions      [0 1 -1 0 0 0 0];
 
internalField   nonuniform List<vector> 
13597
(
( 17.253734624688327 1.6639866286779266 0.0227995467243603 )
( 17.249459551350316 1.7107341081797345 0.0243850235631429 )
( 17.2531247062398 1.80783338191562 0.02554319850958 )
( 17.263935376198436 1.934014617487424 0.0262553665342919 )
( 17.274158669446276 2.041742636618176 0.0259272116336509 )
( 17.28050357820723 2.130379817280689 0.02558528413606 )
( 17.29051442569793 2.219018183741753 0.0254364536528304 )
( 17.303703355696125 2.3134415181008503 0.0245945887022454 )
( 17.320495331404516 2.4080313668140523 0.0243597860207805 )
( 17.33929417678496 2.5024125344941326 0.02431192499922 )
( 17.35951324208239 2.6064431118044413 0.0253292467845255 )
( 17.3857177672746 2.7101774018838576 0.0273914363994892 )
( 17.414757662245567 2.81133494382037 0.0300678923791281 )
( 17.443989681178717 2.917427053081963 0.0340787646525159 )
( 17.474231982687062 3.025510424521607 0.0386919720483282 )
( 17.50665889871141 3.1314932413552024 0.0439252658976208 )
( 17.542520400008616 3.231736597566271 0.0499047713832297 )
( 17.579905229743556 3.330360515581763 0.0571068193252858 )
( 17.617916543910408 3.4316011020034325 0.0660256164025476 )
( 17.12420591642723 1.6773776388603203 0.0371916693773635 )
( 17.101780987180703 1.734879349303323 0.0383741846887699 )
( 17.082350015810167 1.859944036043676 0.0383464270219712 )
( 17.065336154685916 2.004686112644104 0.0380196332277921 )
( 17.049499839126312 2.1170112271474992 0.036125095475479 )
( 17.033182606047394 2.2212138056387616 0.0348201664810593 )
( 17.021783357052115 2.327553766882305 0.0338646558513147 )
( 17.01165556061076 2.4387490171254047 0.0326368483133316 )
( 17.00499256332575 2.5519444003054823 0.0327642628730282 )
( 16.999022164312816 2.664294655668232 0.0345602275507599 )
( 16.992183333467615 2.787370752347506 0.0382029972459779 )
( 16.985382631761723 2.916161512435341 0.0431161008954595 )
( 16.97774557415742 3.0435791317922267 0.05032840956561 )
( 16.972804734240864 3.1734704113239878 0.0584491705229491 )
( 16.96979978359307 3.2991352515677668 0.0669456831780812 )
( 16.96839950713444 3.416732131016752 0.0766229543007338 )
( 16.96791153263344 3.523846511592539 0.0861386785157393 )
( 16.967078736433272 3.6313398461429833 0.0963182335625977 )
( 16.97091897220254 3.737446926134006 0.1074928952392304 )
( 16.999420340793122 1.6825940483046362 0.0543325311507909 )
( 16.95897149969291 1.7476512434666729 0.0573683494173041 )
( 16.917031051114233 1.8905471444961488 0.0577653967344251 )
( 16.87433503159419 2.0465713334401467 0.0570932453483427 )
( 16.83492318098667 2.1632385530897387 0.0558793934067979 )
( 16.799942874556233 2.280111366483495 0.055426356793758 )
( 16.76839679338872 2.4014579682319863 0.0555098110606155 )
( 16.733026753521884 2.522055451097741 0.0572795015968868 )
( 16.699717239333154 2.647435941564741 0.0607764687567605 )
( 16.667264613145594 2.781869172998513 0.0652939083008209 )
( 16.632297843066393 2.920640388768432 0.0722431514055746 )
( 16.59603615569603 3.066632208486105 0.0813186129142332 )
( 16.559815253408516 3.2149375539498286 0.0924420764604187 )
( 16.526762066732843 3.3554860535695274 0.1039821383871113 )
( 16.497850176809585 3.4825158618141367 0.114850407033561 )
( 16.472957505069793 3.5946209528618978 0.1255599333930135 )
( 16.447750078625806 3.6943510931239074 0.1354177679165722 )
( 16.42225709114149 3.793501154359157 0.1450765851935292 )
( 16.40408952094681 3.896757484653061 0.1548649022769639 )
( 16.879824469821912 1.6780911861710943 0.0765650624981618 )
( 16.823257967579313 1.7501059063547784 0.0818084296291762 )
( 16.76221594879146 1.90078183185688 0.081096302535948 )
( 16.696616404601176 2.0625969261785966 0.0792928959085021 )
( 16.633987377866653 2.185746522459749 0.079602375590199 )
( 16.576924498293817 2.3075529901122973 0.0804860923466122 )
( 16.51760686825504 2.4369887944005773 0.0824595049858921 )
( 16.45496372450627 2.5668161239350176 0.0864221288104166 )
( 16.396761110841652 2.701427321090322 0.0918410791956156 )
( 16.339293061936175 2.8456669372889016 0.0981453163329943 )
( 16.276119019009347 2.995460345516796 0.1070392464050727 )
( 16.21654155189093 3.1499731769476864 0.1177702376974332 )
( 16.16106643424054 3.303146041281943 0.1287992657657136 )
( 16.10457223073277 3.447139976639728 0.140119130049046 )
( 16.052270592831405 3.569493931183412 0.1504130799777018 )
( 16.0057746239298 3.674228668861772 0.1589550338787253 )
( 15.961275515482036 3.768852434560471 0.1661740975971276 )
( 15.914931437568423 3.8641785923248695 0.1729223949976415 )
( 15.871823417474658 3.971493646267184 0.1796316528835224 )
( 16.769083851952217 1.6651473442134914 0.1002847154302946 )
( 16.70031120648251 1.746019822394548 0.1054677396016621 )
( 16.61824739610274 1.903614305081054 0.1031082865647513 )
( 16.528998362661188 2.064009736738301 0.1001377710727512 )
( 16.44549926935286 2.1887085842368346 0.100564861295834 )
( 16.365113404816526 2.3126343453272717 0.1017273364658594 )
( 16.278328699283428 2.4455237111632315 0.1042065690455297 )
( 16.18982257216011 2.580337872373045 0.108773981434529 )
( 16.105955838384656 2.715906808871632 0.1146806331087585 )
( 16.019822162387875 2.8604743004061146 0.1220924092509348 )
( 15.928602688230804 3.018303974372296 0.131270891781083 )
( 15.841120652759097 3.1793035584489115 0.1409147029072649 )
( 15.75729502917429 3.333757861708098 0.1505537047663787 )
( 15.673806797287233 3.4767173801967584 0.1592970482331848 )
( 15.595225003623897 3.59286312593438 0.1661050221890273 )
( 15.521115440201362 3.6971686456261295 0.1715739810971603 )
( 15.450528827735525 3.797033156083834 0.1761611303727938 )
( 15.381432231064792 3.897631167321502 0.1798447555259142 )
( 15.31232311219458 4.01299099424107 0.1828866908257792 )
( 16.668094932098736 1.6432431750983252 0.1223487582246478 )
( 16.584819790408552 1.7311360461356018 0.1259453931057934 )
( 16.47819053727406 1.896808333593984 0.1212630194757796 )
( 16.366884345562585 2.054604566928829 0.1165637863136447 )
( 16.262825390327393 2.177999646055561 0.1160794456554259 )
( 16.159848223304785 2.303415734097319 0.1166369301304817 )
( 16.051466400388005 2.433433917849276 0.1188825017011729 )
( 15.936843442054911 2.565495465835728 0.1234696860858794 )
( 15.818755963149844 2.7004857828220103 0.1293418841765737 )
( 15.69803741226013 2.851227811827397 0.1361835477746225 )
( 15.5804857587162 3.0117424292705293 0.1434624505322235 )
( 15.46247208336126 3.171931811904307 0.1508602810679871 )
( 15.348720016896204 3.3280420912660857 0.1578480674546323 )
( 15.241052650787728 3.4695693874700004 0.1628378440014589 )
( 15.135990894136327 3.586953966968576 0.1655995807837211 )
( 15.03975741247807 3.690887770987923 0.1673382415273277 )
( 14.946108739052423 3.7917964400654647 0.168556927259881 )
( 14.852827844913 3.895522718330173 0.1689858707949119 )
( 14.7594106967274 4.015892895252914 0.1691684068044159 )
( 16.567818250876154 1.6149280766979317 0.1413047117015711 )
( 16.468663869481908 1.7103038467754874 0.1417036800482734 )
( 16.339540944738246 1.8792343104121736 0.1335558105865895 )
( 16.206964686376494 2.030990341412753 0.1273152124094126 )
( 16.082012914299412 2.1505207632535326 0.126074199468643 )
( 15.95216427343694 2.2716126159043726 0.1262668436604932 )
( 15.817815934244171 2.3990021428719333 0.1280517733434398 )
( 15.677202970766828 2.5300269367156094 0.1310641416745297 )
( 15.528928545893606 2.664004827820674 0.1346970025737324 )
( 15.383777054199808 2.8163184885673886 0.1395990127625129 )
( 15.237643501534238 2.978337405828195 0.1445648480016758 )
( 15.087792015831845 3.141525058189254 0.1489336410965596 )
( 14.948308371748876 3.2958571890806443 0.1524267692688929 )
( 14.816759338595768 3.4340522767450907 0.1540774602613578 )
( 14.686902073766325 3.5558923688405715 0.1542235483527222 )
( 14.56663997512147 3.6580862523972777 0.1536915062563986 )
( 14.451181320953127 3.757898373159825 0.1527383133679221 )
( 14.33340381744562 3.867450139659665 0.1513405282799071 )
( 14.215853881779513 3.992463524930832 0.1498209186677542 )
( 16.471974448146895 1.5832279538397345 0.154611404098371 )
( 16.35516738893849 1.6803624436094164 0.1512044107227996 )
( 16.20412677085693 1.8468320121183248 0.1408562664427302 )
( 16.049224266550425 1.992193438045908 0.1335013070673556 )
( 15.900169194680922 2.1077752682198714 0.1311872100700043 )
( 15.745284581117597 2.226220384015183 0.130781859970472 )
( 15.58304141372313 2.352861544662664 0.130520529392763 )
( 15.41804420542628 2.479524880979722 0.1311983481950887 )
( 15.243177103820637 2.610792875746668 0.1328041104891158 )
( 15.071486485553526 2.7664928261017923 0.1351011985430088 )
( 14.895819113666215 2.930292881935626 0.137728893199779 )
( 14.721226382371192 3.0963700253765607 0.1399501920592721 )
( 14.557453039516988 3.2517451817670238 0.1406165023425808 )
( 14.398179068773976 3.3837201660293217 0.1394653681844418 )
( 14.2510399994719 3.499314806627281 0.1379757067711216 )
( 14.108892984381674 3.6020849629975285 0.1361841935752835 )
( 13.969764726314724 3.706334719502751 0.1340010432046879 )
( 13.830096325301684 3.822802589290285 0.1318625381257077 )
( 13.691346271086577 3.953930020014991 0.1299123614048503 )
( 16.378251340409875 1.5428888259309068 0.1625697803450933 )
( 16.241450667068065 1.636396441648778 0.155940298596612 )
( 16.06775527126918 1.7989381918464538 0.1442081243387531 )
( 15.892608972691155 1.938164949640811 0.1362140815172178 )
( 15.717560774594666 2.0531086920710044 0.1324361458308646 )
( 15.542051840784092 2.167962959899908 0.1301572810929335 )
( 15.358532356102453 2.288225333722479 0.1279901963560867 )
( 15.170536832007183 2.4170506836951504 0.1268525443173406 )
( 14.97377787052408 2.551522834634105 0.1268128991719633 )
( 14.767697326376398 2.7039109139969395 0.126241713905852 )
( 14.5656980593368 2.869303058103891 0.1263290285006427 )
( 14.372888930416297 3.0345756781047504 0.1268705745927767 )
( 14.1817221735132 3.1899093250169 0.125353447525056 )
( 13.99875089121877 3.321013679120299 0.1228196924723301 )
( 13.835071844907144 3.4319639498590533 0.1207809857268015 )
( 13.671978446680017 3.5372699523536517 0.1183703330531141 )
( 13.509612616223324 3.643780777791859 0.1158236224609275 )
( 13.347797036938864 3.763243294570068 0.1144077307334336 )
( 13.184711204856658 3.900226615987698 0.1138614881735546 )
( 16.28068324953336 1.501042334947234 0.1662808593750946 )
( 16.123001751634714 1.596300352418092 0.1567232744699431 )
( 15.928436691779712 1.7519578865820278 0.1440602822033995 )
( 15.73556310967056 1.8791167083913225 0.1359596570016373 )
( 15.54153742558563 1.992696584670272 0.1299570666681573 )
( 15.345566748930034 2.1001531253694448 0.1251889337425271 )
( 15.139031201062188 2.210237680208582 0.1212081505824863 )
( 14.923206736780582 2.3367134924764774 0.1181845354389672 )
( 14.707022830057234 2.4710635831696663 0.1164572401603875 )
( 14.480930921764184 2.623389207267682 0.1145100311810286 )
( 14.256700115667778 2.794978627327932 0.1128337158127861 )
( 14.041751132539396 2.964081618708604 0.1114970140597002 )
( 13.830126478514146 3.114781155297646 0.1093814662648286 )
( 13.630994693898195 3.245765814789605 0.1072731932295712 )
( 13.444421455472872 3.356843199850938 0.1052943151424247 )
( 13.257765530169236 3.4602848021970423 0.1034604640549799 )
( 13.069685373714725 3.5663846989895807 0.1021806247220854 )
( 12.884128400432754 3.6872566771411592 0.1017109295013122 )
( 12.699237552626132 3.831171087285025 0.1016335671847489 )
( 16.184373170105033 1.4600039819242887 0.1662334714493042 )
( 16.01079651363622 1.5556888373089943 0.1551780107675948 )
( 15.792040970688925 1.7014396203608346 0.1421457978932175 )
( 15.584293108938285 1.8162353942688567 0.1322536646844428 )
( 15.373752917668256 1.9220099853879045 0.1237812630911159 )
( 15.154728316206407 2.0237566506019475 0.1168565162522386 )
( 14.92807369869334 2.1256889625684536 0.1107111810008504 )
( 14.69440105172417 2.243449017333189 0.1061907556588734 )
( 14.457041864150431 2.381162351491231 0.1036476269214463 )
( 14.215803405718464 2.536677362399111 0.1012581012024901 )
( 13.97147192043524 2.707905928419802 0.0990096998790357 )
( 13.728622159830463 2.8825474312824664 0.0972909411408192 )
( 13.502775322398866 3.030745003142447 0.095620894200382 )
( 13.287604750357175 3.1606391468546606 0.0944710802735555 )
( 13.07339457874445 3.272600426236793 0.0932857312214781 )
( 12.860172347817118 3.373274269219509 0.0921187659963688 )
( 12.648859171836412 3.4803044390174747 0.0913992623570702 )
( 12.444331503075109 3.605070099786312 0.0907121881108173 )
( 12.23746681983541 3.756930298012181 0.090248452787412 )
( 16.08719930960842 1.4132743875438365 0.1639877750778457 )
( 15.89654284284359 1.5068592264118996 0.1517855970892222 )
( 15.657504433745864 1.6450361233951964 0.1373668063566763 )
( 15.436749674958516 1.747410740283254 0.125698076024058 )
( 15.209263463874583 1.840915843422446 0.1154259265393124 )
( 14.970950375183843 1.9385327850221028 0.1060253267045703 )
( 14.731885651255332 2.043113480416452 0.0990460156383549 )
( 14.481922378313868 2.15991503917105 0.0939557848920839 )
( 14.226517353763535 2.2980711878954616 0.0906352235427292 )
( 13.966551033367733 2.4515683128925088 0.0877803604070277 )
( 13.702801415275976 2.618158340506108 0.0858474488189366 )
( 13.439595188117046 2.787140474904913 0.0851505663797941 )
( 13.190679494058932 2.9376585070600654 0.0841051325681537 )
( 12.951649794805096 3.0727168393531734 0.0838115703400552 )
( 12.712441050445156 3.1833090282141905 0.083124453580029 )
( 12.479997286109104 3.279641871815392 0.0820317889159026 )
( 12.253508890132355 3.3875863562648987 0.0812970316822705 )
( 12.029110461701158 3.5219916986467736 0.0809784701610923 )
( 11.798569423261284 3.684193800879556 0.0821042433713353 )
( 15.988934278905198 1.3577617411008405 0.1600170789522113 )
( 15.781979378476844 1.4481973215866428 0.1466526259205136 )
( 15.531974337773848 1.580675580790699 0.1304913049316242 )
( 15.295627225319684 1.6773156226690815 0.1169041030306133 )
( 15.054867504294666 1.7671650148151 0.1054380865344659 )
( 14.803651198093242 1.8608667012042253 0.0951568750197829 )
( 14.54986582126022 1.96335960247974 0.0874076472343237 )
( 14.281847350369404 2.075650663057273 0.081732328708451 )
( 14.008102114068665 2.207228841432549 0.0777642477497216 )
( 13.732908417571853 2.3627070465388216 0.0756275856039533 )
( 13.448041275673924 2.5338220846535937 0.074524618383509 )
( 13.16677922340143 2.6975870322009534 0.074650480977545 )
( 12.892259049230123 2.8458159371571647 0.0746682710263784 )
( 12.623906680978608 2.978263911007427 0.0747892898399035 )
( 12.37032424107813 3.081547420521831 0.073896350771717 )
( 12.127552073124823 3.17872073641196 0.0732434739210641 )
( 11.882128648589202 3.292408286709711 0.0738424780682893 )
( 11.631616028424796 3.433245680194324 0.0753663604454302 )
( 11.369114270359846 3.610200678995013 0.0794763809322979 )
( 15.893397206393118 1.2961160961123843 0.1543279229821052 )
( 15.677803886198111 1.3836459604402336 0.139986341584933 )
( 15.414478812264225 1.510139173022161 0.122608650220441 )
( 15.16422409749898 1.602820818903658 0.1072873599445475 )
( 14.909590394789983 1.689401569477742 0.0943420601497761 )
( 14.649822430288165 1.7759858421689922 0.0839902654854728 )
( 14.382854492986986 1.8735983443700197 0.0757026542972221 )
( 14.106288188043488 1.9844792311169863 0.0696994287668198 )
( 13.814874098160558 2.111392087967153 0.0660732225934569 )
( 13.51765403980308 2.2658349139207234 0.0648308534255141 )
( 13.211912354824952 2.438532964063985 0.06446967256223 )
( 12.905494629100152 2.605794149867841 0.0653255065254313 )
( 12.609327669260438 2.754603616504152 0.0667999443513962 )
( 12.32604260400102 2.876332889869367 0.0670818077389247 )
( 12.057907354002957 2.9739722981992776 0.0667488877928774 )
( 11.793172801601555 3.0776982104505657 0.0675831220004376 )
( 11.52281849218541 3.203520175852683 0.0697890410258516 )
( 11.240378386517676 3.3462538936348527 0.0735904216109426 )
( 10.936068689220336 3.528973691892785 0.0795495129274738 )
( 15.80298219225211 1.2355748292617506 0.1476889991429577 )
( 15.575899179394748 1.320362800501775 0.132292958624018 )
( 15.291693247750034 1.440999863216366 0.1126509511258585 )
( 15.03193622431439 1.5227657495782387 0.0964370559272657 )
( 14.770419499581148 1.602749123549985 0.0825783722349503 )
( 14.504646265414047 1.6860863812392897 0.071215461087421 )
( 14.225675302681342 1.7785171173917316 0.063037184984454 )
( 13.934386602321178 1.8893118111702991 0.0577138170628966 )
( 13.631721738565409 2.0141571802719085 0.0552114627965596 )
( 13.31603723223445 2.16265431123894 0.0546990931526962 )
( 12.985840048854072 2.3349483335709174 0.0553801631733108 )
( 12.654035356278424 2.501128132490869 0.0576902524294809 )
( 12.335932170948215 2.650400863553562 0.0602857611493359 )
( 12.043079396581136 2.7676119135460984 0.0610633701675201 )
( 11.761112089417772 2.864021566833266 0.0622183224282506 )
( 11.4720716344703 2.9713823821299963 0.0645780081211101 )
( 11.168620541798246 3.102173095795412 0.0682670438835286 )
( 10.846213626171869 3.256987415174049 0.0737517041685145 )
( 10.510405868100367 3.459420246228761 0.079840048348071 )
( 15.71666309849671 1.1768521736262263 0.1400176967955256 )
( 15.479009937919992 1.2571734844441795 0.1229470979791557 )
( 15.18143200972396 1.3700652228301902 0.1016705498454678 )
( 14.912617960479576 1.4395719159248108 0.0848346619860818 )
( 14.645739212286529 1.5094715454953942 0.0707812893185838 )
( 14.371830894462486 1.5965542040516842 0.0594486836542218 )
( 14.082786303914546 1.6825873513277696 0.0516614820425556 )
( 13.774142094902778 1.7837097289055577 0.0473365346841293 )
( 13.454421219019826 1.911822831213429 0.0458575636540132 )
( 13.12167305109503 2.056125470649166 0.0457572684762666 )
( 12.764141590206211 2.2301113980631926 0.0482094606856643 )
( 12.406513171074424 2.398429956487972 0.0524709544616591 )
( 12.079153469691033 2.53833970140476 0.0552797913731079 )
( 11.7788093763091 2.651502236481364 0.0572818113474367 )
( 11.478886439122263 2.751862582685858 0.059903770182011 )
( 11.162728461073062 2.8625081744704217 0.0633137466311872 )
( 10.821548763802202 2.99568890387671 0.0694664718363606 )
( 10.459440652394212 3.167133936238563 0.0745842317139947 )
( 10.114105240472382 3.4104085446954757 0.0774250920887099 )
( 15.635743453884547 1.11864284362286 0.1317050804789018 )
( 15.385343845614091 1.190317687500967 0.112059463533904 )
( 15.079994578999308 1.297284314197909 0.0906416158526907 )
( 14.809856404164398 1.360816907412475 0.0739549986689442 )
( 14.535150593404955 1.4241971921488454 0.060137398030854 )
( 14.246455125420525 1.5058037615212183 0.049334219427086 )
( 13.945976533489056 1.5833449042571273 0.0416960373150334 )
( 13.631992729692913 1.681361595945878 0.0383156474707345 )
( 13.294246189269526 1.810253087282462 0.0379961342577032 )
( 12.938111626155091 1.9466420783309109 0.0385341766462699 )
( 12.569521626163407 2.1141343868927778 0.0425287381577069 )
( 12.192753650786551 2.2933430284114933 0.0485039160507285 )
( 11.85197178221334 2.429380383048969 0.0522573621307866 )
( 11.534151579998117 2.5336663389680085 0.0553654859891427 )
( 11.20537766180435 2.637221689403169 0.0585390642531656 )
( 10.851810476733672 2.7469119692218413 0.0626640131616307 )
( 10.476556571310288 2.8893260363331827 0.0682381026843746 )
( 10.09908822233816 3.0853359346127176 0.070613929532488 )
( 9.762813024539412 3.378134965928407 0.0718154312425837 )
( 15.556277181237 1.059280972331564 0.1224645142438682 )
( 15.29799750496261 1.1226128414292436 0.1014422635943635 )
( 14.985754615628414 1.2201744280544975 0.0794470607180039 )
( 14.715620295786184 1.2779030020166884 0.0631702145377905 )
( 14.435319393081402 1.3414000865664686 0.0500620271077907 )
( 14.133780260838195 1.4165876874227925 0.0395471193064263 )
( 13.825261233136176 1.482508180216686 0.0320337676594724 )
( 13.499818395466232 1.581047714208807 0.0297246224209883 )
( 13.143588156895156 1.7101780174185135 0.0312199104853324 )
( 12.769966526149906 1.846618719668348 0.0343163099053912 )
( 12.38252019998768 2.002593430082435 0.039316465074978 )
( 11.992129388110309 2.1663579378966378 0.0453868977674801 )
( 11.63674561039346 2.3037689933009315 0.0502174394937477 )
( 11.291933383794008 2.41266850294476 0.054011776239196 )
( 10.933029407250716 2.508370350199333 0.057550437676233 )
( 10.550341074437531 2.6194144143290945 0.0612455135333942 )
( 10.149364303892748 2.7745345382189246 0.0641687592313458 )
( 9.774264112589364 3.011364823792396 0.0643253183715084 )
( 9.424859043451065 3.3674308241163198 0.0654012468558258 )
( 15.482840367152628 0.9978028241254469 0.1124047035113619 )
( 15.219531347285612 1.052834235805023 0.0906999149621184 )
( 14.898088789326057 1.1370743734943114 0.0679207217096713 )
( 14.627620524970055 1.1925888002011853 0.0526639453237832 )
( 14.34153860661859 1.251550159251648 0.040132658407828 )
( 14.027616004528753 1.322655602581708 0.0303708309645376 )
( 13.718993557574 1.3892288076961898 0.0241580025271789 )
( 13.38083713229139 1.4771239852433622 0.0226921314117394 )
( 13.003711662774077 1.601807318771194 0.0254427145304946 )
( 12.609975617127462 1.742034232100243 0.0307326347241931 )
( 12.197016094837757 1.8953857890785255 0.0369049119037324 )
( 11.801553203963673 2.044402279284136 0.0425726752716998 )
( 11.426373169567304 2.171291364805553 0.0474778475247375 )
( 11.050837688873232 2.281099544482237 0.0526943836507586 )
( 10.67203520749352 2.379406064290236 0.0574306433766203 )
( 10.268675497640611 2.5008772301310827 0.0602639491464944 )
( 9.85108196211953 2.6756811797805278 0.0609139406920735 )
( 9.467649741535736 2.9497760674612428 0.0601035112223704 )
( 9.02129775903606 3.324605128337517 0.0580967806836111 )
( 15.41903169942735 0.936055945614767 0.1026831373910096 )
( 15.1456047498068 0.978439603937432 0.0794946003296173 )
( 14.817768737277408 1.052553188972577 0.056768592398308 )
( 14.544133279677814 1.1054829851706878 0.042361857380633 )
( 14.252822782352691 1.1617340987780818 0.0305399578500856 )
( 13.930502506177806 1.2327745076019874 0.0222857119665665 )
( 13.611094294333116 1.2967690555905866 0.0180802953930824 )
( 13.267851334763511 1.37493519150673 0.0175316998001269 )
( 12.88109303101168 1.4898123215372023 0.0212127335594185 )
( 12.466119557457809 1.621672853037153 0.0272805183694165 )
( 12.032897066009696 1.7780295886653856 0.0335047621758724 )
( 11.623484786807223 1.9284799179043044 0.0398034960263945 )
( 11.224292922560965 2.0445625599640294 0.0453978699773593 )
( 10.826990601046075 2.144821009016289 0.0506187646388465 )
( 10.418899279955236 2.2567767972283543 0.0566330897277496 )
( 9.996480792460074 2.3882784956655017 0.0597618032998683 )
( 9.574529691971913 2.583721722556452 0.0577738482430273 )
( 9.127039082773138 2.8876511869903334 0.0567706056594251 )
( 8.512712583043578 3.216167139678576 0.0519315915257227 )
( 15.357641582809707 0.8698710751409658 0.0920754964619 )
( 15.082164408658748 0.9076376523175932 0.0688958244257619 )
( 14.753715013389932 0.9720474203722268 0.046815381982574 )
( 14.470678635619468 1.0132277375669094 0.0323047008651868 )
( 14.172902256364717 1.0692780436981275 0.0215162705014426 )
( 13.846430153798586 1.1429025343040355 0.0152750836676422 )
( 13.514772286655392 1.199377577054231 0.0126451944223493 )
( 13.166690492062235 1.2702056709347838 0.0132984682314903 )
( 12.762197967045 1.3805871645324117 0.0184669666585754 )
( 12.33027159653998 1.507407459040277 0.0251804502919504 )
( 11.881674220496018 1.6564550461120713 0.0309663471155427 )
( 11.443593677218509 1.8032410901764675 0.0378751104894249 )
( 11.031572999633587 1.923277944674708 0.0445090034107376 )
( 10.62686139145396 2.0196144569873486 0.0486301253290698 )
( 10.19104985132128 2.1337496478583926 0.0531037898444909 )
( 9.74043155974555 2.275126463173076 0.0546887624726339 )
( 9.304980589276736 2.4880416384286046 0.0536989479413518 )
( 8.761135551750206 2.801707976910173 0.0519506556627955 )
( 7.898364115511415 3.03217563932872 0.0438681467390538 )
( 15.301099220112224 0.8022384459578922 0.081160248185476 )
( 15.025428725958555 0.8380378156113628 0.0590720933953797 )
( 14.694830978239002 0.896585659848794 0.037845888445699 )
( 14.408127823409483 0.9318178927777284 0.0238312726077864 )
( 14.100315246625328 0.9818129697059136 0.0141345212036499 )
( 13.761790503696748 1.041385205505624 0.0094546021678992 )
( 13.422376386327311 1.0948651624383647 0.0078720692436046 )
( 13.069593476500309 1.1618853059379726 0.0093732942937873 )
( 12.64054704808784 1.267470917770274 0.0158132803328515 )
( 12.191517971997374 1.3972023229977983 0.0234194112628636 )
( 11.740351257177752 1.537423606293147 0.0295885756142718 )
( 11.29002968467757 1.6819800345620293 0.0369912142617922 )
( 10.86167809715085 1.8072224801956327 0.0437503438621486 )
( 10.429397964391963 1.897128798350716 0.0480754514339408 )
( 9.980040021264674 2.004183580760852 0.0510734371975275 )
( 9.51220829981734 2.1544702957781188 0.050476657268329 )
( 9.013691551694526 2.388388844289624 0.048681491712338 )
( 8.397678085552396 2.702030891058848 0.0437145328720047 )
( 7.134408041225394 2.7442428003517807 0.0351166635039693 )
( 15.249314416076947 0.7405113717530485 0.0715997376140014 )
( 14.968273241007967 0.7683457374253793 0.0496405909543214 )
( 14.636455606043336 0.8205796011944747 0.0291000066530376 )
( 14.350383905787234 0.8551645847067705 0.0161522104149845 )
( 14.034055411399686 0.8965489662068146 0.0073646672389375 )
( 13.691057824847396 0.9430297289251914 0.0041587874169879 )
( 13.344056149565777 0.998996728043792 0.0042304065785079 )
( 12.97423676683814 1.069593891279549 0.0066525534083156 )
( 12.526965000204765 1.1628956973091995 0.013386715490221 )
( 12.056742495973298 1.2877768690773874 0.0218484918955114 )
( 11.59971803034192 1.4189603120289702 0.0290655004740239 )
( 11.1509503151515 1.5475764783417576 0.0358239059376576 )
( 10.70608009744776 1.6658842641514189 0.041771472669359 )
( 10.244233628537758 1.760082672326429 0.0470996779821301 )
( 9.7723248943348 1.8661328625750768 0.0516154713519704 )
( 9.285751094898222 2.023308169942237 0.0509633313346957 )
( 8.707078264564643 2.2694230001661264 0.0459949036945735 )
( 7.897905263007446 2.518728961367458 0.0397725152745077 )
( 6.393572675951674 2.4182940269993027 0.0317098221150977 )
( 15.203945929037197 0.6772136222544403 0.0623838935836985 )
( 14.918354615519087 0.7004787257312276 0.0408652653032175 )
( 14.581168163231874 0.7456809604388773 0.0210805949647575 )
( 14.293440943154025 0.7734510364405367 0.0087996367759653 )
( 13.973214483495584 0.8129634435983555 0.0019712265402273 )
( 13.632024034553384 0.8618948541734414 -0.000198531758579 )
( 13.282842331300255 0.9159203843806294 0.000519263080783 )
( 12.89177715647055 0.979196263949425 0.0042499906130239 )
( 12.433244409977732 1.066818168995339 0.0115955204036668 )
( 11.955619165901313 1.1847319218811752 0.0207217194426224 )
( 11.481598392345813 1.307241628598813 0.028342722284246 )
( 11.009522477518503 1.4173411706919663 0.0346345690335414 )
( 10.54477871283251 1.518980207245462 0.0397070438154954 )
( 10.066477997576431 1.613024147686032 0.0437714580238554 )
( 9.577434170244974 1.7267689347799176 0.047865860967142 )
( 9.05261209300984 1.905470827289221 0.0469557195896173 )
( 8.411676981358585 2.143271825892143 0.0433309072972416 )
( 7.35686015373455 2.2695024721494463 0.0382063310748013 )
( 5.755806823193224 2.1070324028237937 0.0273038354714831 )
( 15.164324418292702 0.6121122173831891 0.0532925182961768 )
( 14.880152698938696 0.6332878027797908 0.0332398781688312 )
( 14.535392371897329 0.6737565864925446 0.0138961536276742 )
( 14.241306878650285 0.6938327723717909 0.0026289030914565 )
( 13.915685884308134 0.7272005824970932 -0.0028163705339337 )
( 13.571414275146171 0.7751665797125004 -0.0044732459976336 )
( 13.218180058794362 0.8165290438922497 -0.0034506798723665 )
( 12.816526363810514 0.8750977174698371 0.0016082266887292 )
( 12.357807921129115 0.9712823979542374 0.0104314067270154 )
( 11.873792118410524 1.0818753431998034 0.0194772229952469 )
( 11.377335557575556 1.1992844186563285 0.026329500410739 )
( 10.88173938800916 1.2933129117867666 0.0329178359906128 )
( 10.39768961536 1.379188563465167 0.0375351644304066 )
( 9.892632161316158 1.4678267370512266 0.0405141733976668 )
( 9.387443441410053 1.5836850753670424 0.0422796136523689 )
( 8.804464788390199 1.7730092631267678 0.0401353578458174 )
( 8.086399815322862 1.9847783432924964 0.0374573516565583 )
( 6.902010359428848 2.020927856551927 0.0338459495352747 )
( 5.166580595134167 1.79233118715383 0.0237974648876798 )
( 15.130439112912256 0.5552791145123046 0.0454256810408947 )
( 14.845404759699893 0.569357056041984 0.0262310462062683 )
( 14.495587059672228 0.6009533010038034 0.0073044403055898 )
( 14.19623766036327 0.6176734983734227 -0.002998337527972 )
( 13.866455756513934 0.6423961928116777 -0.0076542976266316 )
( 13.521095067382792 0.6802628207577448 -0.0083541897546358 )
( 13.155467546975892 0.7140012918873198 -0.0067523097901724 )
( 12.745484430396106 0.7781001237462689 -0.0002934005021232 )
( 12.287455358049616 0.8746936742677047 0.0097502113083604 )