/*--------------------------------*- C++ -*----------------------------------*\
| =========                 |                                                 |
| \\      /  F ield         | OpenFOAM: The Open Source CFD Toolbox           |
|  \\    /   O peration     | Version:  2112                                  |
|   \\  /    A nd           | Website:  www.openfoam.com                      |
|    \\/     M anipulation  |                                                 |
\*---------------------------------------------------------------------------*/
FoamFile
{
    version     2.0;
    format      ascii;
    arch        "LSB;label=32;scalar=64";
    class       volSymmTensorField;
    location    "0.0006";
    object      tauij_LES;
}
// * * * * * * * * * * * * * * * * * * * * * * * * * * * * * * * * * * * * * // 
 
dimensions      [0 2 -2 0 0 0 0];
 
internalField   nonuniform List<symmTensor> 
13597
(
( 0.1730709749532537 0.0041963909917296 0.0042881285800848 0.1283770080425262 0.0298940868882292 0.2113854847457953 )
( 0.1730503793456712 0.0075086536856605 0.0078194801315633 0.1245486971276492 0.0329836154727006 0.2037007336721141 )
( 0.1708421849603494 0.0138724878357524 0.0135831084389224 0.1135371921996835 0.0370432844586131 0.1859918512023498 )
( 0.1687310347531353 0.0215550538790251 0.0200128118418026 0.0992345353327002 0.0410273643208699 0.1652726356393181 )
( 0.1676430614600855 0.0266062283602972 0.025123996300254 0.0883084905470365 0.0429566134094283 0.1497507624702028 )
( 0.1666334511746937 0.0293794062080686 0.029695811389752 0.0803251310561024 0.0431939821493999 0.1376919443102393 )
( 0.1661724412631779 0.031443140467128 0.0341395881608811 0.072860275926548 0.0424065224718647 0.126893050043548 )
( 0.1650547808901055 0.032909014702649 0.0386137717868262 0.0653977939088738 0.0404801949687109 0.1171687348138766 )
( 0.1638175868886437 0.034073947866919 0.0429366295517833 0.058680461368058 0.0376865994016202 0.1098368688680641 )
( 0.1635187497843024 0.0348351139399853 0.0470068714749297 0.052913045343423 0.0343527629742258 0.1037976110518388 )
( 0.1622179235256605 0.035495544737599 0.0511358317267985 0.0480900283000018 0.0304865050010619 0.0986568686449941 )
( 0.1611210266003904 0.0361001745689397 0.0547156953638001 0.0445236126522627 0.0265245209967335 0.0960664649836153 )
( 0.1605033216414804 0.0367079232685378 0.0576679788655103 0.0418036324936313 0.0225695096304853 0.0954880171738001 )
( 0.1590490552913378 0.0372922767417962 0.0603224644438685 0.0400422833724331 0.0182906075472314 0.0962414123164504 )
( 0.1576845352341381 0.0377372853805315 0.062920285799457 0.039419123882319 0.013790896271792 0.0985975981891414 )
( 0.1568415112853778 0.038282379309367 0.0650912429662142 0.039811627945118 0.0097125305973333 0.1018976329376457 )
( 0.1557827176763465 0.0391916875194993 0.0664008119692762 0.0410192589927988 0.0065547710171221 0.1052072897585957 )
( 0.1535347060766484 0.0400653836247541 0.0668678650676038 0.0424476262745603 0.0035341707202126 0.1090500153613026 )
( 0.1512920221491924 0.0408533842434641 0.0669583312261013 0.0441883641434104 0.0005343605359121 0.1129679512836555 )
( 0.1883114545681328 -0.0006582934784287 0.0183492549045397 0.1514637382845919 0.0436280904347067 0.2143815487555297 )
( 0.1885543651855862 0.0029437650138129 0.0234050730419665 0.1469973925386677 0.0479758773767778 0.2015055220526695 )
( 0.183562746048981 0.0105537035631176 0.0309573352876914 0.1323924003435198 0.0528224344211589 0.173707904947289 )
( 0.1781536080811749 0.0180449436173292 0.0383170179975622 0.1173452900276608 0.0562903583091776 0.146837521319529 )
( 0.1747334973357717 0.0220848993680992 0.0434874595744086 0.1069773785346791 0.0562151239450497 0.1277564742427046 )
( 0.1715597733766487 0.0246055433383671 0.0479230022015611 0.0978431866489321 0.0535854063791158 0.1118385298755791 )
( 0.1684158950237103 0.0265278818457253 0.0518945057306857 0.0891705749966959 0.0493536027239169 0.0990478083595698 )
( 0.1653483731555608 0.0278893852110754 0.055657008478752 0.0814990629145375 0.0438411454042888 0.0894509909724557 )
( 0.162510716190998 0.0290232072264781 0.0588825729838532 0.0746343670729013 0.0375397032373288 0.0835888071687378 )
( 0.1600829917445783 0.0297487785088728 0.0617774966640587 0.0686581042193974 0.0307834504526464 0.0807623853466441 )
( 0.1572268948255495 0.0301928114238362 0.0644606015458526 0.0638691208358577 0.0233894819726799 0.0814407329039487 )
( 0.1540154886190655 0.030331129164204 0.0666085021483524 0.0603457279086329 0.015706738120112 0.0857466487619928 )
( 0.1517774784509332 0.0302071717241935 0.0688644242153582 0.057785474169739 0.0084371089108284 0.0929725234994737 )
( 0.1492927818869377 0.0304249842947155 0.0710391590996756 0.0563648046709345 0.001824273342261 0.1024720137684865 )
( 0.1463455350160175 0.0306664641764548 0.0725692866469775 0.0562278763218046 -0.0039119377890299 0.1131143211894094 )
( 0.1448407509953993 0.0306316988360706 0.0741954100922439 0.0570122101321657 -0.0086448507507118 0.1234899667422667 )
( 0.1439923462655942 0.0306667255564327 0.0758621978593822 0.0584255399294078 -0.0122594493040126 0.1323272260299892 )
( 0.1423481868657933 0.0307680415307701 0.0769437058557735 0.0600160279723666 -0.0152508225144771 0.1404104228257537 )
( 0.1408332003932122 0.0307956068043086 0.0776504895394766 0.0615688885365138 -0.0175713572151284 0.1471832539277596 )
( 0.1971698280698288 -0.0041998597624983 0.0314921113148358 0.1667884053563632 0.053642745177368 0.2105706491127931 )
( 0.1953779825064353 -0.0011786999017489 0.0372689414245199 0.1611078508715661 0.0579168047681129 0.191738232031466 )
( 0.1871984290033516 0.0059264863906319 0.0443265000536168 0.1440639036428363 0.0612432911902742 0.1563792943338336 )
( 0.1787407215551327 0.0117929199396721 0.049578646603082 0.1279908660160766 0.0612594521051005 0.1254685978677553 )
( 0.1732896279458977 0.014260122514991 0.0520144382059097 0.117401633950724 0.0575684007410668 0.1063732911482936 )
( 0.1690235744608462 0.0164363287375714 0.0537299074245403 0.107226813501027 0.0514064238690996 0.0928954170046766 )
( 0.1645228225130829 0.0180436152367099 0.0547343389028409 0.0977408446935272 0.0437801497183816 0.0846464209418156 )
( 0.1598941438432041 0.0188602088432356 0.0550477825459712 0.0904405712557741 0.0357416702582711 0.0820284326844082 )
( 0.1557832599417117 0.0196838830663426 0.0551051686315399 0.0839736546567467 0.0276455822427691 0.0849122182069543 )
( 0.1521631316728618 0.0203648233379183 0.0556114844397044 0.0780130204830213 0.0191117175481556 0.0920917462272385 )
( 0.1487487784009325 0.0206890037688366 0.0563747068197828 0.0735412880340073 0.0111488955190021 0.1033287939605815 )
( 0.1460464988888754 0.0206758964073745 0.0569550908737622 0.0704565739307293 0.0038425535998218 0.1177585437124994 )
( 0.1442471094927081 0.0203675492398431 0.0579467197671417 0.0684841546823334 -0.0026134537707674 0.1332628353890537 )
( 0.1426681804206171 0.0202564088185776 0.0593576176078706 0.0677346602694733 -0.0075790947152363 0.1472609299351832 )
( 0.1416248512123911 0.020199017222823 0.0605731653527548 0.0679899130594877 -0.0112856835157519 0.1584234224702195 )
( 0.1413466565620895 0.019775677400965 0.0616477848067192 0.0685747488012791 -0.014019959061544 0.1664342993246893 )
( 0.1414670399630678 0.0193848471768675 0.0624056518415153 0.0692405048800399 -0.0159000177603218 0.171554536968718 )
( 0.141451583066333 0.0191013719126194 0.0627774936748934 0.0698535511595729 -0.0173518576539517 0.1744793481927146 )
( 0.1419966585885459 0.018767643643753 0.0634700454153636 0.0704493913450487 -0.018624264161917 0.1752008128637217 )
( 0.1968319986221175 -0.006041457236023 0.0424130642599137 0.1747743200306046 0.059351482210416 0.1994573654081938 )
( 0.1914030637754645 -0.0034834607940455 0.0471544192653714 0.1667564508468838 0.0627870808213632 0.1747739119049748 )
( 0.1813304055252701 0.0021875020213044 0.0502732076270651 0.148381422630908 0.0630669995961693 0.136194975801402 )
( 0.1712391982085626 0.0067480587638186 0.0504562280641597 0.1313924844025222 0.0585325969281998 0.1058734066611743 )
( 0.1632898604041461 0.0087482624105707 0.0486209063947816 0.1202136087324744 0.0515732439599859 0.0906986842021074 )
( 0.1566355369515492 0.0107717095931184 0.0463648405291669 0.1102123526703687 0.0433222323410397 0.0841883509177176 )
( 0.1509127075697458 0.0122675241552268 0.0436634183418662 0.1011389288344374 0.034369115793479 0.0849146105265898 )
( 0.145958989937198 0.0132726625833917 0.0411544226428929 0.0939394364799081 0.0258269092956073 0.0919090570404296 )
( 0.1416616882761437 0.0144995276872926 0.0396367463189206 0.0874933690700625 0.0180953967556072 0.1036107319842539 )
( 0.1381263804919541 0.0158328081576971 0.0387717648024048 0.0817385631097957 0.0108315458034489 0.1183832405879961 )
( 0.1354213264653248 0.0168026074778407 0.0385231330450198 0.0772167483816026 0.004618413203317 0.1340725641193559 )
( 0.1336193465389024 0.0172756688738301 0.0389287089626679 0.0739312267316514 -0.0004269025213751 0.1485441167711004 )
( 0.1327902618532869 0.0177155602276523 0.039841481172491 0.071927743138763 -0.004732599086792 0.1596895922638115 )
( 0.1331794810928018 0.018148473405034 0.0407371971051944 0.0708767569873018 -0.0080366479175461 0.1670900149486206 )
( 0.1344636316718151 0.0184419650972284 0.0410695521841424 0.0703713736942214 -0.0105128184229317 0.1703814755226433 )
( 0.1358131927616084 0.0188331178168833 0.0410082119939854 0.0701113039233923 -0.0123626075321733 0.1706802343073178 )
( 0.1369805268493737 0.019236757259878 0.0404912915596839 0.0699030940745337 -0.0136443433127816 0.1688750883610744 )
( 0.1386727335814148 0.0197699013718068 0.0397017912822667 0.0697648212177902 -0.0147915659427266 0.1654861603725912 )
( 0.1411485425283401 0.0201942086528581 0.0391516139167516 0.0695111549014325 -0.0159065304997322 0.1608869171860781 )
( 0.1880963542521089 -0.0059256476731147 0.0491555076228563 0.1770051799138553 0.0623477425831056 0.1841248774174714 )
( 0.1788480005167679 -0.0031300713382694 0.0504670896275064 0.164822670246883 0.0633045489939427 0.1544524166538632 )
( 0.1670198742322599 0.0009512072912412 0.0481724312122342 0.1458189563845126 0.0600746643444304 0.116295445598118 )
( 0.155722014945606 0.0046834532350213 0.0430439249684095 0.1296871601381341 0.051897899935686 0.0920165893111351 )
( 0.1465710302600673 0.0069717441884311 0.0375068985628165 0.1187354482295315 0.0431370921331622 0.0842610790280073 )
( 0.1395668418646239 0.0091788796737548 0.0327184866273308 0.1096207065548582 0.034555606049333 0.0861332510714378 )
( 0.1339733697211399 0.0113910145004113 0.0282126222798965 0.1011066904744879 0.0258818645941383 0.0951466592082623 )
( 0.1288956721600273 0.0133495686295444 0.0248502973391313 0.0938542807544492 0.0182503605585467 0.1086128127577382 )
( 0.1251153903090262 0.0155593125244343 0.023064566792079 0.0877959107773184 0.0119831723182542 0.1232574493050176 )
( 0.1231841245672182 0.0176927837306791 0.0217851564556832 0.0823660623337844 0.0066417977005349 0.1372288964176924 )
( 0.1225879608763572 0.0197252539512541 0.021080198787751 0.0778230402217879 0.0018312951192984 0.1494642531784858 )
( 0.1226075443027966 0.0214717278007451 0.0208324783093425 0.0747056442431915 -0.0022184211951516 0.1578421363501827 )
( 0.1237340310348634 0.0231758269799979 0.0206814609548795 0.0728243288848293 -0.0056970097968276 0.161230639976102 )
( 0.1261809454905498 0.02521744964438 0.0198803953040791 0.0717176704028249 -0.0085813680798744 0.1613234333268888 )
( 0.1286792477809504 0.0270344405965276 0.0181623335579982 0.0710731105295224 -0.0106835312155106 0.1583840184651097 )
( 0.131372560348779 0.0287556748934808 0.0163281586629345 0.0706521943253896 -0.0123366970276313 0.1540809197630131 )
( 0.1341868151168635 0.0304992775037585 0.0146043288869821 0.0704100348593994 -0.0136565301048861 0.1487786957908546 )
( 0.137400253840207 0.0323734270089767 0.0127549084322312 0.0703601162358802 -0.0147644394640833 0.1428274918776071 )
( 0.141309126476979 0.0341986742688344 0.0110920235009654 0.0700359795434368 -0.015598021422286 0.1363959640996702 )
( 0.1726323502084339 -0.0036254053081851 0.0507916153847047 0.1728819927055529 0.0620994997119107 0.1673927415437285 )
( 0.1605304698283091 -0.000962259916094 0.0476255303031476 0.1583614629923596 0.0605854202793494 0.1346282842015172 )
( 0.1472977475653871 0.0020547737892048 0.0402685380665028 0.139584648878336 0.0542598992802506 0.0999689599645469 )
( 0.137032953336059 0.0053147115391221 0.0320299231441464 0.1255244009276609 0.0441708222772361 0.0852860137990436 )
( 0.129273685361341 0.0080372140036709 0.0251024158548672 0.1157404696598415 0.03476882408654 0.0859122333709774 )
( 0.1231997141909061 0.0106507829445221 0.0196076803754658 0.1075794174007982 0.0264027699378147 0.0948135264819585 )
( 0.1188434584433606 0.0138844555382304 0.0149810171913379 0.1000724299032018 0.0188850875436605 0.1082032383624105 )
( 0.1147910348507673 0.0168993909392828 0.0113676814743862 0.0935739588815755 0.0124618004670083 0.1227321307917496 )
( 0.1116095827204863 0.0202073656520315 0.0088844562395475 0.0883490058476429 0.0070367331542067 0.1358656431937634 )
( 0.111235098469318 0.02402974036602 0.0064966455956887 0.0836858683841197 0.0022372429949594 0.1461521644237018 )
( 0.1133429585591226 0.0277447725933912 0.0043632146630466 0.080020395881126 -0.0020347405673535 0.1525172580352477 )
( 0.1161135948487813 0.0314276339240597 0.0025083388844886 0.0776252763382076 -0.0056633069100075 0.1536612579092149 )
( 0.1193692656402308 0.0348704194978519 0.0005311580147043 0.0761525058843129 -0.0089705719063975 0.1510078289279101 )
( 0.1233141944735514 0.0383901284648843 -0.0018955547473227 0.0755001007721702 -0.0116706677315848 0.1463866721222689 )
( 0.12716968912148 0.0417196348710499 -0.0047857650226101 0.0752574751383806 -0.0135988629970313 0.1403141878234841 )
( 0.1308314344098737 0.0445382371537195 -0.0073583360327309 0.0750926428040604 -0.0149701734582072 0.1340993600970395 )
( 0.134800358494465 0.0473015591574364 -0.0095952727289281 0.0750995452319743 -0.0160210646224882 0.1277796460936785 )
( 0.1384930981569217 0.0499536609591937 -0.0116496402722878 0.0750766642101573 -0.0167131189823698 0.1213905661082561 )
( 0.1423457147967456 0.0523930194482096 -0.0133463596707247 0.074697810720007 -0.0170167284083515 0.1151010696106825 )
( 0.1532248143726729 -7.201222537824658e-05 0.0478530448104218 0.164321607150133 0.0591383872250689 0.1485074004181554 )
( 0.1407085394945304 0.0019796968562829 0.0410308843427741 0.149492897066765 0.0553298298685929 0.1163129727821607 )
( 0.1294092655968234 0.0045774915477145 0.0306795408695769 0.1331683701274665 0.0469229744075313 0.0900067454645086 )
( 0.1212031123151046 0.0081748343477844 0.0212849084182505 0.1215783671126427 0.036627174702153 0.0853596326694288 )
( 0.1154382291445789 0.0115050349468354 0.0144906723885642 0.1134469973001127 0.027443286407814 0.0929080681311095 )
( 0.1100235570682413 0.0147913247644836 0.0088894178029588 0.1066275525845511 0.01906782287136 0.1059713830115806 )
( 0.1057182081562717 0.0187722331627475 0.0042234939964631 0.1003062578355453 0.0121616454550566 0.1204939096970954 )
( 0.1033448570972069 0.0229552735189051 -0.0002939806348307 0.0952160438370119 0.0062891396110754 0.1331445721837418 )
( 0.1022865306708296 0.0278196260815886 -0.0045013680223734 0.0914109699016759 0.0009605123537233 0.1427954487459515 )
( 0.1040934793680404 0.0331950726596656 -0.0082285807404855 0.0880501398442107 -0.0036219492313199 0.1480950820772283 )
( 0.108056628560636 0.0384250189874415 -0.0116949977660115 0.0854108542777999 -0.0075412338511437 0.1481633573261908 )
( 0.1132014143819365 0.0437433739944523 -0.0149474300802231 0.0837308100640405 -0.0109710657606677 0.1440217829288449 )
( 0.1190903361334469 0.0486092080185533 -0.0180398726613289 0.0829235653409501 -0.0138500905740579 0.1377982568425876 )
( 0.1245947829772747 0.0529549283969949 -0.0209107879211567 0.0826830924563353 -0.0160898994705993 0.130809689407361 )
( 0.1292901642943715 0.0568760617357938 -0.0237129192137678 0.0827112801725304 -0.0176576120742779 0.1235447573555134 )
( 0.1330745698007649 0.0601451787288792 -0.0262119901062852 0.0828971455679605 -0.0186681229492379 0.1170357387417566 )
( 0.1362298228881538 0.0629417243410123 -0.0282919998211651 0.0828439564742461 -0.0193041944956064 0.1111136708849719 )
( 0.1389514354346073 0.065468077856167 -0.0301557563890277 0.0825723899575332 -0.0196777394917739 0.1055786246692682 )
( 0.1411853125651536 0.0675204874073335 -0.0316753673666793 0.0818548726526413 -0.0197582390046932 0.1007177028309615 )
( 0.135388465157926 0.0038470760559664 0.0423970127632826 0.1547550112762659 0.0550872045721062 0.1315876281852102 )
( 0.1237469166119111 0.0058880546371356 0.0335919624270104 0.1407434334268585 0.0493463183590538 0.1036585643145582 )
( 0.1149061190978043 0.0082428836586359 0.0224347111540492 0.1279240008497807 0.0395471437926424 0.0872675705865179 )
( 0.108375278073102 0.0116955060462826 0.0128601981214139 0.119121162315204 0.0289976786479064 0.0910780328395834 )
( 0.1033712122830587 0.0157260506105055 0.0059866766557943 0.1125703293215041 0.0198354757787149 0.1032776537309634 )
( 0.0998451775460358 0.0199795343763664 -0.0001868012192066 0.1075045271234001 0.0116156753384125 0.1178754437386194 )
( 0.096662444559635 0.0250119447722581 -0.0058234856909669 0.102943506700138 0.004533326970025 0.1316197435749342 )
( 0.0957870112336849 0.0303615907187287 -0.0115668886214885 0.0995649245814939 -0.0010107146255773 0.1409836236037158 )
( 0.0979744323364458 0.0366049920452012 -0.0173105409701484 0.0973761477323937 -0.0059450698576452 0.1457410272882187 )
( 0.1021502673256491 0.0433789536637942 -0.0219941573543099 0.0950024409521114 -0.0103267934974812 0.1459785393376061 )
( 0.1078174510342198 0.0498330344768086 -0.0261358716314062 0.0933461641181871 -0.0138974036535369 0.1410908634742838 )
( 0.114669791053905 0.0558646097710982 -0.0297786458367199 0.0922998761101726 -0.017001208167525 0.133759552771267 )
( 0.1215762156950172 0.0610802616656253 -0.0328176829145314 0.0917579576540934 -0.0191841378231995 0.1256875921823424 )
( 0.1272728959296044 0.0655180166248482 -0.0355314654075967 0.0918492741604766 -0.0207457176913764 0.1177835980016631 )
( 0.1311575987417204 0.0690870899981538 -0.0377686490876149 0.0919334326238315 -0.0218170934519745 0.1110202864824862 )
( 0.1339316056255316 0.0719965932999944 -0.0398178130927458 0.0920279538322604 -0.0225929022187797 0.1052922557306163 )
( 0.1356306940356767 0.0743103915042359 -0.0416259953720884 0.0917118411632164 -0.0231375489096175 0.1006660431541561 )
( 0.1366454553498718 0.0761883575435698 -0.0432847077336287 0.0910183989788287 -0.0234609201068594 0.0970681840985607 )
( 0.1369151517286133 0.0774200796260023 -0.0445985799993534 0.0896714860618538 -0.023574835457369 0.0944740385709154 )
( 0.1197873639159941 0.0083325258728594 0.0366325229866784 0.1449295849021832 0.050265917679442 0.118578582036124 )
( 0.109399917246296 0.01045764786853 0.0272805843276011 0.1329475911037323 0.0432445194189758 0.096911729793404 )
( 0.1026733175406981 0.0123205188646841 0.0161055850913538 0.1237842874045695 0.0323025086008684 0.0901239036637074 )
( 0.0978302299600084 0.0155789065686506 0.0067646041023172 0.1179912161189184 0.0213264986815931 0.1007756450398675 )
( 0.0939449375000902 0.0200056452557855 -0.0011583143665213 0.1135583484208622 0.0117921623276022 0.1159624517854529 )
( 0.0921422709759673 0.0249914657374169 -0.0082861723796639 0.1105530246599669 0.0036920033475547 0.1298423157826185 )
( 0.0919416435241715 0.0310577597278371 -0.0152195932661685 0.1080451389048225 -0.0031662131485016 0.1403322073085983 )
( 0.0937242395322211 0.0378002071912737 -0.0219283333693205 0.1061713068938983 -0.008608734353248 0.146298443749972 )
( 0.098317099554246 0.0451686674108505 -0.0281343650523405 0.105242016611375 -0.0129375115370696 0.1463118842440575 )
( 0.1046167826824534 0.0527054190278198 -0.0337576447537434 0.1041208918530583 -0.016916354202809 0.1420131103628394 )
( 0.1117205315089792 0.0597554542790718 -0.037928962376473 0.103156406732055 -0.0200102537253864 0.1340917910020402 )
( 0.118525054437067 0.0656941354010621 -0.0410165616158757 0.1021781877974873 -0.0223553012338965 0.1249112764687692 )
( 0.1242082495626326 0.0705500908560112 -0.043628418956232 0.1013779156813091 -0.0240556610412413 0.1162945208438125 )
( 0.1285757576245357 0.0745069683127836 -0.0459444837086261 0.1014225277158967 -0.0252391963394274 0.1089453140010761 )
( 0.1310841564842834 0.0773240834039676 -0.0477479422384047 0.1013068696433012 -0.0259771068165876 0.1035891568237152 )
( 0.132260267100942 0.0795522908249146 -0.0493497504107739 0.1010630434419704 -0.0266439609968277 0.0995179833359349 )
( 0.1324333350140815 0.0813029002749909 -0.050923869031506 0.1006178404532988 -0.0272675769856695 0.0967893087490271 )
( 0.1319541623805378 0.0824924849334347 -0.0522839166602781 0.0994795564548026 -0.027659184069234 0.0953795693050811 )
( 0.1307698584240489 0.0832371817277324 -0.0533289991358622 0.0976031071973212 -0.0278650629756622 0.0952185715013317 )
( 0.1068476384686554 0.0130189213411982 0.0316429848065239 0.1356757475117742 0.0449626948399889 0.1093473692726019 )
( 0.0986412763327051 0.0147577670553782 0.022321037878299 0.126144626827636 0.036587803344094 0.0954943639260407 )
( 0.0937570972959156 0.0163105117387726 0.0109670836497279 0.120617578595289 0.0247913027305134 0.0980245563520527 )
( 0.0906973548044067 0.0196824898503953 0.0014100880018561 0.1181623120209651 0.013521233246306 0.1132072749538427 )
( 0.0887021882235224 0.0244383247689616 -0.0072951490184708 0.1165396487381215 0.003817769028179 0.1289722142203041 )
( 0.0885184437381318 0.0302146310324991 -0.0158368744132043 0.1158045599247071 -0.0042746954929412 0.1408232378189687 )
( 0.0908839046274611 0.0370861003630327 -0.024016114819773 0.1154057088466629 -0.0108685921745941 0.1475483916581554 )
( 0.0953626487111439 0.044832999719571 -0.0314252066129318 0.1149691758321432 -0.0162530498970983 0.1492400803240431 )
( 0.101020541718729 0.0527654506123011 -0.0376056428956464 0.1149739775688602 -0.0202219917185829 0.1455683987066861 )
( 0.108157373262272 0.0602240522454436 -0.0425662230245327 0.1144137504560077 -0.0232899541488232 0.1379374871357886 )
( 0.1154496110931923 0.0669245197944296 -0.046267195736004 0.1132179503401381 -0.0254641324834513 0.1280905581609369 )
( 0.1211542117525612 0.0723875578629437 -0.0489508869175665 0.1118225220133561 -0.0269686453498635 0.1184285205925524 )
( 0.1252041039711907 0.0766558712598929 -0.051159015771066 0.1108618347219576 -0.0283099717768624 0.1104826455680388 )
( 0.1276526636200659 0.0799085164496476 -0.0529722669417047 0.110591808792067 -0.0292524561796491 0.1045704643935473 )
( 0.1286431631861404 0.082162279437439 -0.0544760481216205 0.1103437657936899 -0.0299564766983853 0.1007293033066388 )
( 0.1285287252323236 0.0839285442524541 -0.0558563031413738 0.1101139226078851 -0.0306852822270434 0.0984508657094126 )
( 0.1276711302839052 0.0854046941027765 -0.0571589263070685 0.1096642731242883 -0.0313419095250683 0.0976616870853971 )
( 0.1264310868468282 0.0865228519541362 -0.0582506103487521 0.1083623981412997 -0.031833276920954 0.0982561883897088 )
( 0.1251154288942037 0.0875336728048795 -0.0590976000405172 0.106203512646108 -0.0321640481619567 0.0999753984363268 )
( 0.0972505012358813 0.0174709987405232 0.0282277727835822 0.1276952629762546 0.0398462270017943 0.1048499958304877 )
( 0.0917351676353997 0.018534888785398 0.0190886423355016 0.1213541855418376 0.0301649712261786 0.0992334788996081 )
( 0.0880770234995423 0.0197098990146018 0.0069226244406653 0.1195849435332506 0.017107343288012 0.1095906512530442 )
( 0.0858033717574932 0.0231778062396333 -0.003459566323368 0.1199983538044185 0.0055815688727643 0.1267807261096513 )
( 0.0851172641960985 0.0285860823231818 -0.0128537491148969 0.1207340077570707 -0.0042385078842185 0.1411750177783838 )
( 0.0871651272017836 0.0350810261636748 -0.0225156755385444 0.1220624597902139 -0.0122031522929664 0.1506482984087938 )
( 0.0920430324464831 0.042318465179437 -0.031357708796316 0.1236767178994586 -0.0186083414795085 0.1541017581798837 )
( 0.0981018927320891 0.0501401251343203 -0.0387018271628011 0.12471590082513 -0.0234339384822986 0.1514226849937024 )
( 0.1042498702484635 0.0582048641324169 -0.0444419992766783 0.1249480006400156 -0.0264492035454545 0.1441834689316771 )
( 0.1112215298742612 0.0655626139212382 -0.0485998552534364 0.1242674591406181 -0.0285505739682155 0.1347273671203591 )
( 0.1174070736353567 0.071742252609621 -0.0519675896159402 0.1229696702439022 -0.0300020169840454 0.1238440666888631 )
( 0.1218240203145966 0.0767117554121669 -0.0545350175075129 0.1213147314519459 -0.0311082203331719 0.1142537883829695 )
( 0.124448934364223 0.0803302848644506 -0.056381936633991 0.1201953094419075 -0.0321129307468197 0.1076309951780127 )
( 0.1253163450111436 0.0830098984836237 -0.05778987716299 0.1196402754623025 -0.0328369964749325 0.1032937836344426 )
( 0.1250300037730974 0.0850881513128406 -0.0590540448457409 0.1195522524049241 -0.0336698239605784 0.1011123019203418 )
( 0.1241404472331162 0.0868969103563623 -0.0602452157210412 0.1196239227567532 -0.0344863247979463 0.1005162032253335 )
( 0.1230602395477307 0.0886108240768324 -0.0613351898219218 0.1192506789643368 -0.035206408120859 0.1013780139223024 )
( 0.1220624974441335 0.0903401759818353 -0.0622376933628787 0.1181031646020022 -0.0358037168366701 0.1034017325290361 )
( 0.121638122675251 0.0923653693162453 -0.0630115070168448 0.1161564157915598 -0.0362780029715116 0.1063401982144276 )
( 0.0908712677660633 0.0215495547789878 0.0254563847912466 0.1207598475587941 0.0348895817262839 0.1051586131842934 )
( 0.0873017149602802 0.0216340888277654 0.0158672845803747 0.1181110047555282 0.0236918560255597 0.107112787122376 )
( 0.0846733614110707 0.0225484440109895 0.0030169515997758 0.1207342583207012 0.0092542258139242 0.1230696942669769 )
( 0.0833707288765588 0.0263331574724061 -0.0077898699069587 0.123553789533338 -0.0023398250628996 0.1406760904660434 )
( 0.084566176910161 0.0320737568768891 -0.0180239372032242 0.1265742503316075 -0.0122211726592198 0.1528648798628232 )
( 0.0885708676177551 0.0389594293957168 -0.0279148854136947 0.1292321785184352 -0.0199154358486511 0.1593931959737656 )
( 0.0945727601928384 0.04632718789041 -0.0366202412170533 0.1318024562582626 -0.0254147280460206 0.1587397412226133 )
( 0.1007267711319108 0.0542827845470569 -0.0438120970471765 0.1338458616779192 -0.0291780379843066 0.1525331238907781 )
( 0.1071165572839599 0.0621573016749423 -0.0490393390616549 0.1339685594219103 -0.0312550648950793 0.1427759583016008 )
( 0.1134915915892373 0.0691213548357303 -0.0531991803856304 0.1333807305050171 -0.0328086420944853 0.1318873481757737 )
( 0.1181412241751543 0.0748723735819526 -0.0563734803421213 0.132295044857343 -0.0337787141971604 0.1210786422349465 )
( 0.1210207886804511 0.0792806786400556 -0.0585851236080429 0.1307077581528246 -0.0346964014270876 0.1125442803791045 )
( 0.1221775375151433 0.0825153173653797 -0.0600097782561045 0.1295308962462768 -0.0355397355979053 0.1069917988172427 )
( 0.1220470996629 0.0851573908678391 -0.0611018649636255 0.1289135731285351 -0.0362030752705105 0.1040725421536762 )
( 0.1211200479880749 0.0873910926175965 -0.062274347778637 0.1291537733892798 -0.0370950377604624 0.1036142592525236 )
( 0.1200325901259616 0.089594381981694 -0.0632932945074703 0.1297544681292214 -0.0379923572031658 0.1045876646675741 )
( 0.1193318800792234 0.0920543238338484 -0.0641871753479475 0.1297862237821476 -0.0388061388869006 0.1065113416140568 )
( 0.1192233291932914 0.0949822475898941 -0.0648814175109633 0.129048520644032 -0.0395417627273507 0.1091349395987756 )
( 0.1202240452239941 0.0985229967574361 -0.0656426249633725 0.1275095335975757 -0.0402620766462973 0.1129313560095316 )
( 0.0867709232463413 0.0248205937865867 0.0234068483616409 0.1153543314805222 0.0298217988634878 0.1110575801690383 )
( 0.084109321376226 0.0241518890752768 0.0130983507518309 0.1160818328046337 0.0174091731900149 0.1193079591372011 )
( 0.0827766313429159 0.0250047002076065 -0.0004340827048914 0.12246015319349 0.0019999105085461 0.1376481017829788 )
( 0.0835591757015268 0.0290403953612966 -0.011611871249492 0.1279431484566766 -0.0097075613537881 0.1539057366692316 )
( 0.0866368455633421 0.0349580846923836 -0.0223752539026387 0.1330674845466581 -0.0193886604489521 0.1631766710818144 )
( 0.0915825742212609 0.0419751873524108 -0.0321241022817171 0.1367678950565041 -0.0266246927518997 0.1659808279322594 )
( 0.0974196745559584 0.0495844232058275 -0.0404569025427517 0.1397278811585321 -0.0311355650798984 0.1621748719414445 )
( 0.1033267901499981 0.0574716999076408 -0.0475836734554601 0.1424133059635836 -0.0337918262150633 0.1533327325875677 )
( 0.1095058318918087 0.0646385764019452 -0.0527857852282008 0.1431911274196066 -0.0354734455242687 0.1421557518637141 )
( 0.1145346784871304 0.0708307232740608 -0.0564350105820208 0.142067458657171 -0.036453126926739 0.1302941247894313 )
( 0.1176470339703211 0.0763112225271447 -0.05938464180073 0.1406110180940587 -0.0370238295789048 0.1197367355657432 )
( 0.1191045172286391 0.0805213521974033 -0.0612833145697396 0.1393811383900013 -0.0377685063129998 0.112409234778274 )
( 0.1191015600380585 0.0838209709818307 -0.0624166981799218 0.1385682833945602 -0.038434175847724 0.1081300830763907 )
( 0.1182655185890365 0.0868304650027773 -0.0633875162955744 0.1387001864756029 -0.0392266873630591 0.1066889750825878 )
( 0.1173103594899742 0.0895878610515147 -0.0643063911543341 0.139656531712258 -0.0402875482428542 0.1073599679432164 )
( 0.1165402020454816 0.092577862203762 -0.0651127252321462 0.1408063110983402 -0.0413312028280797 0.1090848029462873 )
( 0.1166130056378585 0.0963902331239366 -0.065946546206184 0.1418111405794346 -0.0424369775297637 0.111757786647248 )