/*--------------------------------*- C++ -*----------------------------------*\
| =========                 |                                                 |
| \\      /  F ield         | OpenFOAM: The Open Source CFD Toolbox           |
|  \\    /   O peration     | Version:  2112                                  |
|   \\  /    A nd           | Website:  www.openfoam.com                      |
|    \\/     M anipulation  |                                                 |
\*---------------------------------------------------------------------------*/
FoamFile
{
    version     2.0;
    format      ascii;
    arch        "LSB;label=32;scalar=64";
    class       volSymmTensorField;
    location    "0.0028";
    object      tauij_LES;
}
// * * * * * * * * * * * * * * * * * * * * * * * * * * * * * * * * * * * * * // 
 
dimensions      [0 2 -2 0 0 0 0];
 
internalField   nonuniform List<symmTensor> 
13597
(
( 0.189002395252432 0.0615028041507409 -0.0123146925024047 0.1498630715699712 0.0610253128861824 0.1649731690943981 )
( 0.1943195744957249 0.0637845300634575 -0.0145310303433475 0.1549548785372868 0.0610514454391125 0.1607240077532011 )
( 0.203868911694687 0.0676871601512517 -0.0178404308611801 0.1633339330131457 0.0626383293738377 0.1554780809030403 )
( 0.2163543209771466 0.0724497724199762 -0.0206491768645858 0.1734937658697029 0.0656142227919391 0.153017615265922 )
( 0.2269662348114284 0.0770149819193058 -0.0228235800599446 0.1809158626537395 0.0677048454722332 0.1521003550592556 )
( 0.2358630534598034 0.0813376006642874 -0.0241451467575348 0.1858159979291314 0.0685977403444176 0.1508258199251191 )
( 0.2446888840902028 0.0854094653696024 -0.024962886919853 0.1887859285113736 0.0690202320529047 0.1493469311405699 )
( 0.2529701143963432 0.0895171403514213 -0.0260549929701388 0.1892888341814057 0.0688693225262759 0.146521426353555 )
( 0.261273394511695 0.0938276254505683 -0.0267282044598363 0.1886493415718626 0.0686620445523507 0.1432019665655105 )
( 0.2690853429623089 0.0975892111849222 -0.0273963977957657 0.1865916855191312 0.0677246731106094 0.1387514039613266 )
( 0.2767011852150701 0.1014587483779226 -0.0276875754791765 0.1831121555693386 0.0656758135327792 0.1328655502508411 )
( 0.2843715092359142 0.1053961771680661 -0.0274704292385746 0.1788666534341715 0.0632086857806493 0.1265978798417787 )
( 0.290749787015278 0.1088344256720389 -0.0273125960930105 0.173782744272403 0.0603788970028661 0.1193591437319963 )
( 0.2966948740692928 0.1123533849734927 -0.0268586217513615 0.1687583813401644 0.0570825895680177 0.1115148013593022 )
( 0.3026799672215002 0.115777620129238 -0.0259607209392793 0.1645918363977527 0.0537227967024715 0.1040322886129354 )
( 0.3087113357611587 0.119099846396168 -0.0249007696762122 0.1609473512977262 0.0501916526533455 0.096906708786405 )
( 0.314099679418059 0.1217215703474141 -0.0239596705751074 0.1569010064988179 0.0460761155869949 0.0902207553553594 )
( 0.3176429503697072 0.1233192952030345 -0.0225097530657982 0.1524196895115211 0.0421977672453138 0.0837777783978579 )
( 0.3218626454844369 0.1250077345445364 -0.0208014349375176 0.1486006195357773 0.0385750034646935 0.0774949292719871 )
( 0.1999680424824895 0.0717556807091649 -0.0184834152114669 0.1642530789207182 0.0473027623303633 0.1491660380550775 )
( 0.2068726476616319 0.0752210139048549 -0.0209163600586233 0.170817295976528 0.0460988828769015 0.1435723003458054 )
( 0.2179956253458366 0.0797532352066981 -0.0229218679910176 0.1821159247229813 0.0469098989245256 0.1365728536667379 )
( 0.2315510960705487 0.0850022075898278 -0.022164271578752 0.1952158059591499 0.0486057024098585 0.1337161564984838 )
( 0.2407526193428572 0.0886779921930345 -0.0213532113934449 0.2032938095593696 0.0490300975018284 0.1322348271937818 )
( 0.2479500249745818 0.0917352855007494 -0.01973262861407 0.2089678337403226 0.0487410004625899 0.1305636749578407 )
( 0.2536459544425922 0.0944434392075544 -0.0179465511476324 0.2125962498677162 0.048152125906848 0.1289307003711032 )
( 0.2585032000872808 0.0965317215449578 -0.0163984485322814 0.214460536795656 0.0467600224304922 0.1266894298740736 )
( 0.2637467543412395 0.0987360651430815 -0.0143594362910369 0.2150262110516554 0.0451271718826638 0.1237925428019855 )
( 0.2668369281745917 0.1004818301113879 -0.0128694374701019 0.2143671605564221 0.0427166275383277 0.1200310281520052 )
( 0.2680092143817563 0.1020474601593562 -0.011687891964563 0.2131414864667556 0.0392577791472502 0.1154906127388415 )
( 0.2683546016186839 0.1038302668323477 -0.0106196924491399 0.2118527886186795 0.0349953389858313 0.1104201412717037 )
( 0.2665390003726122 0.1051067696230766 -0.0097915419202554 0.210236265737209 0.03062554438136 0.1054190981199543 )
( 0.2640100706172733 0.1064948827819571 -0.00913905471271 0.2083882961062811 0.0265040180712369 0.1010479398530049 )
( 0.2619567291983838 0.108562224107516 -0.0081855583581605 0.2071596920629959 0.0225637564555508 0.0972899775948138 )
( 0.2596757077275562 0.110852047208613 -0.0071232014610602 0.2060583692948802 0.0190445146730444 0.0942672515951047 )
( 0.257342698360281 0.1126257648312714 -0.0060515812785504 0.2045127403030182 0.0159540188824965 0.0922610947443233 )
( 0.2543065972285729 0.1136788714540529 -0.0046426782776609 0.2021602585742269 0.0135523797580251 0.0912022748276971 )
( 0.2523005940449664 0.1154677549389578 -0.0028671467275134 0.1994484933650765 0.0119721050326123 0.090871344069367 )
( 0.209951326906822 0.0804141726156132 -0.0207768191495125 0.175536417272748 0.0365605868096194 0.1397789093568488 )
( 0.2169266164095127 0.0832049431078386 -0.0213829013560545 0.1831977723240488 0.0346886926791671 0.133831299997881 )
( 0.2266652597491345 0.0859934172313184 -0.0190158205238514 0.1958552573342806 0.0347138470781871 0.1267603787662012 )
( 0.2354409552030707 0.0878694844340724 -0.0140971896612226 0.2087950460757453 0.0350435923694043 0.1249215742335643 )
( 0.23852684895151 0.0871730973055708 -0.011082171932343 0.2153949615832173 0.0337479681091924 0.1248020884558493 )
( 0.2398791477606749 0.0858282128266948 -0.0079584022340246 0.2202688383014784 0.03200468854383 0.1254357055358232 )
( 0.238507454045126 0.0840647648386003 -0.0056738155843188 0.2235648958922234 0.029187939038545 0.1254125748067002 )
( 0.2346286129181617 0.0817577781787601 -0.0042065487436402 0.2261520261897379 0.0248997446424369 0.1251045158258204 )
( 0.2307853197532513 0.0798330775593331 -0.0032601314474617 0.2283416780713425 0.0201668749383656 0.1246942822905519 )
( 0.2255835865406828 0.0784585243858576 -0.0032003636688776 0.2303843564575812 0.0148814953787457 0.1235963798233601 )
( 0.2181252604342141 0.0775668213361133 -0.0037897756057023 0.2326750960570001 0.0092676811068633 0.1225967295670057 )
( 0.2111000726356865 0.0776637585985429 -0.0041896672790959 0.2355900959458078 0.0036223229253169 0.1218205978515038 )
( 0.2045158833740738 0.0785257698027466 -0.0045736437994649 0.2386151435215694 -0.0012556613947128 0.1217386361906272 )
( 0.1985820962246316 0.0802920212537007 -0.0050209552216736 0.2413412259524611 -0.0049416612699378 0.1225178283817672 )
( 0.1945466492374791 0.0829387904668702 -0.0046945104716414 0.2435920551772953 -0.0075143584555837 0.1238610412734041 )
( 0.1916349849924278 0.0858534335634489 -0.0035962952847003 0.2452923417101356 -0.0089456611379415 0.1257488380867839 )
( 0.1894490161529202 0.0886519606865115 -0.0021776974627653 0.2463668855177613 -0.0097478603217888 0.1283770639826214 )
( 0.1881814340099576 0.0915896033332245 -0.0004700060257898 0.2462064102678677 -0.0098175347650276 0.1316799028637792 )
( 0.1880922533723431 0.0953261062151669 0.0016280561286308 0.2448466800094772 -0.0091028017306581 0.1350075454893864 )
( 0.2170972750231713 0.0844895417335254 -0.0204387805789528 0.1825197616784642 0.0281896691780458 0.1356252949145123 )
( 0.2221031498454481 0.0844963088249789 -0.0193380077119254 0.1902083426205946 0.0260295692727654 0.130563239430215 )
( 0.2268508026244785 0.0820311773737975 -0.0146537634551458 0.2017889786130562 0.0251159066010818 0.126097695324432 )
( 0.2272318552166058 0.0769654058961129 -0.0088127109347683 0.2120035678242861 0.0235120727612464 0.1276201375755364 )
( 0.2218265293157595 0.0703893585710551 -0.0057206664102656 0.2173187974772695 0.0199650003564211 0.1307538890106262 )
( 0.2145021031226795 0.0638714569645628 -0.0035159982770815 0.2220399841319243 0.0158370498252595 0.1343160037704763 )
( 0.2060165242948183 0.0576755401769136 -0.0026453328610025 0.2264242855976767 0.0103355040685522 0.137350572511238 )
( 0.1964796048804859 0.0527948358096092 -0.0023081179672813 0.231519548371004 0.0036435721701837 0.1401091680576623 )
( 0.1876381352039198 0.0501824274725288 -0.002731808889029 0.2375878286336144 -0.0028027370162245 0.1425876432992818 )
( 0.1802518706482552 0.0494224434932789 -0.0031768943152031 0.2449026720386986 -0.0093009127929332 0.1445709157632704 )
( 0.1732545528243572 0.0504003124112687 -0.0032953554895842 0.2530263393614533 -0.0151780149717232 0.1464196904482844 )
( 0.1684677538142983 0.0538424773073785 -0.0026584539794415 0.2614118495350073 -0.0192124366029196 0.1484454829424431 )
( 0.1665040146366854 0.0591509091351381 -0.001297486895951 0.2682789816806111 -0.0216620980879939 0.1507046958825489 )
( 0.16672020019038 0.0656406861073965 0.0010821868894187 0.2748410538174052 -0.0228101279981908 0.1541359356957407 )
( 0.1684274596418912 0.0720117063326053 0.0044602036447688 0.2801623801014808 -0.0228524608291908 0.1579846072424445 )
( 0.170713303749328 0.0781436811931556 0.0076264619698143 0.2835775431405873 -0.0226443786530695 0.1616349285874508 )
( 0.1735070234033829 0.0841402774652904 0.0107074326192102 0.2859724773682691 -0.0221859393081986 0.1655356925491785 )
( 0.1772388147741185 0.0903004980211938 0.0137896750753219 0.2873074905996847 -0.0214314806273753 0.1698585701550592 )
( 0.18147667077061 0.097159403877419 0.0165655559813035 0.2871976955151896 -0.0205966326298143 0.1743602604749549 )
( 0.2198522169214067 0.0824985358934858 -0.0211837838247032 0.1860713091752769 0.0216086382549315 0.1365789802854652 )
( 0.2201364113875012 0.0775785337041386 -0.0188860796609403 0.1915670533625319 0.0197650370863604 0.1340337634481191 )
( 0.2167546246795503 0.0684184208855077 -0.0132399276472559 0.2008215602192413 0.0177769933723191 0.1334369846787259 )
( 0.2084364325811298 0.0573690560946564 -0.0073325043041064 0.2093224246489612 0.0138977358823806 0.1385036265601446 )
( 0.1967957934278616 0.0471969928791599 -0.0041756838376842 0.2144298245423529 0.0085745731203542 0.1444374409383828 )
( 0.1860358079280195 0.0388952756836571 -0.0020417686785339 0.2206443216390968 0.002244584629992 0.1497572457115503 )
( 0.175840850183068 0.0326121728634587 -0.0005999816878873 0.228638237042675 -0.0050466259501348 0.1549515423867561 )
( 0.16667602964599 0.0295856664368193 0.0007428390461201 0.2382234267262575 -0.0120368263501397 0.159650103254634 )
( 0.1608502169095036 0.0304155434877093 0.0020862867339799 0.2494338190589374 -0.0184612147570022 0.1630167882982411 )
( 0.1579542793996685 0.0340938789780354 0.0042662300254987 0.2625937582059947 -0.0241025826210067 0.1665194696996512 )
( 0.1577892637917919 0.0407911809797552 0.00742894049678 0.276778155518358 -0.0284597309830482 0.1704079600462305 )
( 0.1601702441502189 0.0503976144942582 0.011688159963894 0.2899762253660608 -0.0307488080546384 0.1744899124152949 )
( 0.1647144203645835 0.0617032805609655 0.0163831400261713 0.3010504974111494 -0.0312536146575295 0.1789094809418256 )
( 0.1708019507705916 0.0733212755591935 0.0210016236670524 0.3103031992844169 -0.0312080625095514 0.1843111057830352 )
( 0.1768776078021697 0.0834192956656125 0.0254972393416553 0.3172517706985828 -0.0309775129347442 0.1898745773454059 )
( 0.1827408650165146 0.0931434615108816 0.0290606194104785 0.3223127171568751 -0.0309965558980824 0.195041545776093 )
( 0.1886910093181201 0.1028429639137166 0.0316121783390319 0.3259505953251872 -0.0312628915051332 0.1999428228259418 )
( 0.1950365981537113 0.1122709949199951 0.0334800831416104 0.3282607741040096 -0.031655229368932 0.2045628357478127 )
( 0.2015882298658359 0.1223904027420102 0.0343013726708005 0.329000765555047 -0.0323292898826307 0.2090402853635871 )
( 0.2162509459890254 0.0746290647932993 -0.0223147481413311 0.1847442101249111 0.0172869128881433 0.1419871836706653 )
( 0.2101641254514754 0.064711044336257 -0.0187843115278488 0.1877670812857876 0.0153216297910054 0.1415786268369096 )
( 0.1987936122327543 0.0500394046811698 -0.0112473037695069 0.1948408183859047 0.0124828416741926 0.1443180933311254 )
( 0.1856239503117243 0.0365928826011646 -0.0042944503231477 0.2030342680546829 0.0067631842119641 0.1515502521286891 )
( 0.1733968313464903 0.0270960692886909 7.878659029071148e-05 0.2099677480138509 0.000243794226231 0.1583241065119091 )
( 0.1650480232763836 0.0207634379144429 0.0036565002507599 0.2195542090550116 -0.0069767671172881 0.1644685083315542 )
( 0.1586852861849692 0.0184351781605077 0.0073746553802275 0.2323679045002041 -0.0148160342849722 0.1702735311037918 )
( 0.1544589352357039 0.0205132252781319 0.011507286737691 0.2475830331457242 -0.0214077536347062 0.1759338832441244 )
( 0.1544661955959808 0.0270485199149555 0.0163705208735221 0.2648465018528758 -0.0269789545629647 0.1806922768227398 )
( 0.1576600767222993 0.0377319133965122 0.0217863069433481 0.2840095531287783 -0.0317086443372408 0.1859482277114397 )
( 0.1633218543216168 0.0507789523477994 0.0270677661320124 0.3026059095233053 -0.0350725220325324 0.1917986109808701 )
( 0.170655891477205 0.065996618923412 0.0324914984701307 0.3190683308042903 -0.0368078283985758 0.1972649550558924 )
( 0.1790044299780723 0.0825256432900225 0.0370703911495718 0.3333636772403406 -0.0376299358491803 0.2033527305489869 )
( 0.1873149337066743 0.0979935469286811 0.0399828876807826 0.3439033046708905 -0.0385219217250863 0.2100511829515215 )
( 0.1949493546625082 0.1118619417288431 0.0420139254167865 0.3518871697456889 -0.039919422352448 0.2164186829458093 )
( 0.2018932981802955 0.124456978092897 0.0429283707229655 0.3579319942428315 -0.0414351354253373 0.2219924444198225 )
( 0.2088086948270754 0.1365122508538137 0.042710353454182 0.3624076971040704 -0.0431304651843624 0.2275289953892758 )
( 0.2156755601988011 0.1484172947234017 0.0414581562904493 0.3655449103189725 -0.0447966177486536 0.2320834474157985 )
( 0.2230806392163148 0.1609509697814243 0.0392155615433442 0.367181983356673 -0.0464282729311788 0.2356905685624575 )
( 0.2045295169249185 0.0624428350684889 -0.021763876908303 0.1782198373149456 0.0142334997994084 0.1496696191023398 )
( 0.19347504289022 0.0493654764065709 -0.0153622505482729 0.179870647344195 0.0124642012302002 0.150615736847476 )
( 0.1799075555306571 0.0332733525707436 -0.0057229117768233 0.1872417896171404 0.008419682529562 0.1550794698701176 )
( 0.1678745947891846 0.020778919134599 0.0025083858339309 0.196572350680029 0.0011459727212494 0.1628828663838476 )
( 0.1598208685384897 0.0144586890421927 0.008817127388086 0.2068083628835665 -0.0062322273911089 0.1694545790284256 )
( 0.1553936511307188 0.0129009201036583 0.0147589475728709 0.2204835886863868 -0.0138357896495966 0.1759470774497283 )
( 0.1533529909539922 0.0164393852464819 0.0211852293191264 0.2379703310446513 -0.0208806417554703 0.1822301477579515 )
( 0.1544300077796909 0.0250172209558067 0.0277016205937577 0.2592098901999831 -0.0273102424857204 0.1889135971271454 )
( 0.1590657333712641 0.0378862719767877 0.0344377628248305 0.281804737416745 -0.032739072964862 0.1952142783404119 )
( 0.1661298456752761 0.0542125464832397 0.040401036813877 0.3049862473605805 -0.0368956677451471 0.2018352542187422 )
( 0.1744859365615622 0.0729446618730915 0.0444961516806384 0.3275641915052676 -0.0404644990932293 0.2091124782393942 )
( 0.1839106109888494 0.0931773454178689 0.0472909779523746 0.3472546634739394 -0.0433590304358577 0.216328950437879 )
( 0.1937212627531115 0.1125244791930024 0.0485193462043046 0.3630147881558151 -0.0459430346150931 0.2242679653613644 )
( 0.2026782653079322 0.1301932968787498 0.0480811503033013 0.3744800567341279 -0.0484299964934534 0.2323216488881682 )
( 0.2111679520510812 0.146756697335612 0.0469058110553905 0.3838432538478891 -0.0508250217120563 0.2394063715137307 )
( 0.2189828879395348 0.1617475506596062 0.0448302613133015 0.3915203917808108 -0.0529870220759401 0.2452173535210292 )
( 0.2263160301958802 0.1759745461855433 0.0420734772141659 0.3974150537141507 -0.0549804558217308 0.2502984617211194 )
( 0.2344708131601366 0.1908488492236862 0.0386401139602415 0.402159936739038 -0.0564530580213521 0.2543086342053653 )
( 0.2436508319006531 0.2062992576838696 0.0346258090917219 0.4055554921653483 -0.0574567602625289 0.2564809999614589 )
( 0.1903241374642773 0.0492052249180445 -0.0185145231241374 0.1695849772677278 0.0119991209256354 0.1573662105732312 )
( 0.1779877290842453 0.0349947406799891 -0.008604630148727 0.1704221087581563 0.0104590323961894 0.1580895815691467 )
( 0.1663420484929429 0.0207584994760376 0.0034307927782811 0.1796221385753909 0.0049218405586268 0.1627549824815587 )
( 0.1577582137807874 0.0122394316548514 0.0133407415028356 0.1916179631675737 -0.0034371975497695 0.1707424384775795 )
( 0.153994380427681 0.010578455419512 0.0216818088764985 0.2051886403484659 -0.0111559899679628 0.1774864293023594 )
( 0.1534910259009045 0.0145427532216297 0.0295956057621836 0.2233717485599293 -0.0185880026620931 0.1842677880756775 )
( 0.1553177292928997 0.0246479991130039 0.0373037635515988 0.2465604282140959 -0.0254538893584343 0.1905571030510009 )
( 0.1598357891159634 0.0389761507513864 0.0438729490621808 0.2728085669970351 -0.0319657670566254 0.1987298558541852 )
( 0.1671452768426666 0.0567666869666451 0.049191673153744 0.2997526273261887 -0.0381259540732756 0.2076770494392606 )
( 0.1755171522195855 0.0776655090931479 0.0525969488478299 0.3266639067298574 -0.0431554328651257 0.2158915286076993 )
( 0.1851630372059031 0.1008728140748589 0.0538182859675959 0.3522301483719767 -0.0475962586026278 0.225725321429873 )
( 0.1960445143785409 0.1244975105677971 0.0530326313089357 0.3740762854272373 -0.051347948815216 0.2358678788154601 )
( 0.205999731386407 0.1455982763413812 0.0502899548614456 0.3915328658581967 -0.0550108654419081 0.2446565073672045 )
( 0.2151550045652276 0.1650911465699183 0.0467276542936922 0.4057962913785343 -0.0585572515901921 0.2525544386301049 )
( 0.2240381079904346 0.183458309490624 0.0430131236119256 0.4171402178389066 -0.0608451663279051 0.2588576803035673 )
( 0.2330920739137937 0.20122031869077 0.0390860884127102 0.4269120539997397 -0.0622231964437255 0.2638664425582896 )
( 0.2425792542668337 0.2190080339064121 0.0349869136195975 0.4354635019522542 -0.0631488067249955 0.2674656802013226 )
( 0.2538722055352977 0.2376898571046349 0.0306595733234428 0.4427922734985741 -0.0634283353950195 0.269501391690494 )
( 0.2669363651782214 0.2568883454257418 0.0263078816406215 0.448587654186063 -0.0631427813144649 0.2688759848624226 )
( 0.1771673166595155 0.0368739445751468 -0.0110837960122857 0.1594840472425732 0.0104938199137633 0.162183144441003 )
( 0.1662531156130184 0.0239348215775336 0.0017516869112148 0.1601612082260833 0.0085929356783728 0.1615280953454058 )
( 0.1579030330092273 0.0133624559950848 0.0154685219860509 0.1713300420603533 0.0021078354065003 0.166535740334574 )
( 0.1533361318872963 0.01019001573482 0.0266135178206864 0.1864095608320464 -0.0065915424686528 0.1747100343411791 )
( 0.1528848830274131 0.0138088164292504 0.0361798453476351 0.2045806786695902 -0.0146238080540274 0.1825199403086862 )
( 0.1552142963122457 0.0228552128605637 0.0440897322573185 0.2279318691843521 -0.0222925357925783 0.1903283540289333 )
( 0.1596506209090944 0.0378674900850616 0.050706369220709 0.256060074394479 -0.0297202587923045 0.1979939126158564 )
( 0.166196015165316 0.0567983649042819 0.055237644621015 0.2865562419949625 -0.0369503935893115 0.2081079815710446 )
( 0.1744448479490611 0.0786221938843437 0.0575204968748327 0.3177537564436419 -0.0438877901588945 0.2195493708752955 )
( 0.1835681258526768 0.1032510114223934 0.0574390476143954 0.3494628448707073 -0.0505589449861426 0.2309436102353234 )
( 0.1938691008742873 0.1289714078193708 0.0551667286512997 0.3776551049717163 -0.0558625635061436 0.2426077196585533 )
( 0.2047380194190603 0.1541888862733715 0.0514198152214016 0.4014074934488107 -0.0597352863797995 0.2543310917894819 )
( 0.2149266987812845 0.1781985307789391 0.0458217782407972 0.4217722240830259 -0.0629923487087111 0.2626522519969298 )
( 0.2253135263023438 0.2008258556772398 0.0401317216069284 0.4395870325348889 -0.0657848871289515 0.2693400136174892 )
( 0.235809665049236 0.221870104381203 0.0352085197874661 0.4542633679140346 -0.067483585453731 0.274559458319199 )
( 0.247439458228248 0.243319991514718 0.0305489170743671 0.4672726950913183 -0.0676076278956071 0.2773677174911521 )
( 0.2605602282707132 0.2651643466234318 0.0259904457220724 0.4794647311881311 -0.0670921849741905 0.2781045707090197 )
( 0.2764765159365639 0.2881737366986907 0.0214028256247001 0.4903963725173683 -0.0662016269206039 0.2765209057253752 )
( 0.2959621395293938 0.3125856570787692 0.0169558904385927 0.4993038044645342 -0.0648194909471334 0.2723031304643891 )
( 0.1673867473369973 0.0269447279131612 0.0009054690871933 0.149412431667673 0.0102661496012174 0.1636964406203675 )
( 0.1593205878298731 0.0170072455382037 0.0150275608247745 0.1513110870023594 0.0073515180598109 0.1622645586084879 )
( 0.1532736584171692 0.0112197180837924 0.02890814133124 0.1647249928532795 -0.0001150692821908 0.1680202248660721 )
( 0.1521273081645755 0.013059980875077 0.0401968612819241 0.1829772270218869 -0.00898682958127 0.1768604374199425 )
( 0.1542707568597955 0.021406944288051 0.0487914684103767 0.206205292258117 -0.0176704183103672 0.186005439969266 )
( 0.1584038652882921 0.0350606576596556 0.0552209869736149 0.2339541593194154 -0.0263331375425089 0.1960634762460553 )
( 0.1643202338044491 0.0538691123773827 0.0594908893851271 0.2656051525348235 -0.0345551217304597 0.2066855036893932 )
( 0.171788622301943 0.07668255125938 0.0608796162499714 0.3010881957655194 -0.0428319601324656 0.2193105645036142 )
( 0.1802024090457655 0.1014681615957656 0.0600211402673988 0.3362856877719645 -0.0501374189095787 0.2327625954438779 )
( 0.189269887624036 0.1280253848433755 0.0566586247380071 0.3710491710044183 -0.0570710722639047 0.2458801417460325 )
( 0.1991700603146541 0.1552836178721507 0.0511858546469869 0.4035593418329193 -0.0630801684374047 0.2581612623714128 )
( 0.2098126186218049 0.182466959549293 0.0449165708954835 0.4316174894269543 -0.0670368544536678 0.2690668317222062 )
( 0.2214759258782044 0.2096124609622185 0.0383771278854277 0.4556413379390462 -0.0691201440895786 0.2769302539524976 )
( 0.2341877694910797 0.235590812231384 0.0321742867436425 0.4770568291142332 -0.0702851925780384 0.2817987388169545 )
( 0.2479583991077339 0.2608640017028455 0.0267754497794235 0.4962425035179639 -0.0704103591589958 0.2842020735359792 )
( 0.2637708617790231 0.2869790635737319 0.0218852817394438 0.5143206980547821 -0.0693787804451823 0.2842732282564313 )
( 0.2820795786319627 0.3141726850008523 0.0171604121452714 0.5317213153193322 -0.0681551265877225 0.2819300085158307 )
( 0.3044976297985091 0.3429527875809268 0.0122982766576921 0.547155747179792 -0.0668655975277111 0.2767724559860018 )
( 0.3326363798203698 0.3738401336600884 0.0076391400073923 0.5592559385686466 -0.0649341969542284 0.2691637789604054 )
( 0.1611139829433641 0.0206153537340603 0.013501674407137 0.1406154695161487 0.0097886554146601 0.1614029566424731 )
( 0.1556946299947732 0.0143024059187447 0.0281231703371399 0.1444164213051429 0.0062724300929395 0.1593964312215493 )
( 0.1516280793994076 0.0130805167386347 0.041862920021934 0.1603489742401439 -0.0018758563052498 0.1675643146436101 )
( 0.1518801027476008 0.019327786347905 0.0512710029853332 0.1816129210596496 -0.011481706472842 0.1787694087036349 )
( 0.1551508854439864 0.0320971354454415 0.0577493409098277 0.208366380105153 -0.0209371514901357 0.1897129840242444 )
( 0.1603258550396231 0.0495441951792432 0.0620883599415887 0.2406914569791147 -0.0304729213863626 0.2027247158926588 )
( 0.1673054977733495 0.0706996317672187 0.0634199097658678 0.2766109804596574 -0.0399417194638504 0.2166039460666334 )
( 0.1751580448635419 0.0954497543225601 0.0619473507974895 0.3159199397120494 -0.0487602534631937 0.2317679508912252 )
( 0.1833031932036158 0.1221991279946587 0.0581986679360976 0.3554413307920956 -0.0566577412290211 0.2471195157506346 )
( 0.1918296664438408 0.1501062428414231 0.0522041187546704 0.3934460680759836 -0.0630442190346155 0.2602315222915178 )
( 0.2017866790979034 0.1790771661688935 0.0450736009112904 0.4302758968688122 -0.0682472990354 0.2718793765412605 )
( 0.2139570928330479 0.2098274135668995 0.0374751365584767 0.4643870309987121 -0.0715401385544574 0.2810169309065321 )
( 0.2278339420494364 0.2400456417042435 0.0308331799449106 0.4930138337220688 -0.0723829320616764 0.2868723403744873 )
( 0.2436593012020254 0.2699358459883402 0.0246151783412027 0.5193808268712444 -0.0724195825222734 0.2892104766359967 )
( 0.2618748041303732 0.3009014061780693 0.0188293893275033 0.5451099395294295 -0.0713216947116415 0.2879778490738608 )
( 0.2829397063454455 0.3329500021225962 0.0137202537280875 0.5698275228398643 -0.0698772375545475 0.2850981786374865 )
( 0.3083595454953429 0.3671209092380919 0.0087674200275632 0.593494544815107 -0.0683047544730013 0.2799401784301956 )
( 0.339373696147193 0.4030671336025055 0.003815910026944 0.6134074111673876 -0.0663224271930391 0.2720318674241324 )
( 0.3785223799223305 0.4420288088370309 -0.0010148254640138 0.6288214547274903 -0.0637837951808047 0.2621038773702983 )
( 0.1568282289216469 0.0171422129726542 0.0257010369616987 0.1324436508316927 0.0086916791145737 0.1563644359753786 )
( 0.1539408292821187 0.014086871417552 0.0403758719422035 0.1384804550485974 0.0048809503597139 0.155173187028589 )
( 0.1519728749170643 0.0174666237007984 0.0523546402653921 0.1579111586335009 -0.0043153408211953 0.1671058456737718 )
( 0.1526340231666787 0.027681678204591 0.0593368383440502 0.181955466735269 -0.0145271467114276 0.1810157767332063 )
( 0.1566561966170447 0.0434833948115315 0.063233642660132 0.2116793646949017 -0.0245220269912482 0.1945577271803549 )
( 0.1618841093013798 0.0636180115647357 0.0644908453842369 0.2481127698173314 -0.035073479067459 0.2103159116502452 )
( 0.1686494932901546 0.0865301772771522 0.0634869308822476 0.2886441692431213 -0.0450296797454288 0.2274738909936199 )
( 0.1757813477603085 0.1124618620447753 0.0597782860918079 0.3320049095885827 -0.0540846968283436 0.2449395559014213 )
( 0.1833110815028816 0.1401839977574852 0.0538552859236792 0.3758087177735874 -0.0621754184405749 0.2600764218865632 )
( 0.1920055452961574 0.1695540504324468 0.0463433554475904 0.4184499590554392 -0.0679303232926873 0.2726096556052469 )
( 0.2028563148762193 0.2011176160627669 0.0382299175789029 0.460100971066622 -0.0720893742888171 0.2829676946093991 )
( 0.2171816278302588 0.2355510394512451 0.0305782719043824 0.4999488411326352 -0.0738323490718079 0.2899722131918885 )
( 0.2344984082381059 0.2706342927701003 0.0237073176061953 0.5355695698311543 -0.0735469957935212 0.2923734993878844 )
( 0.2551585692828692 0.306526760879947 0.0173391166272569 0.5691432972281428 -0.0727952969989261 0.291406432755335 )
( 0.2786423354218117 0.343939145107892 0.0113361648033092 0.6028016920299825 -0.0715041816754952 0.28777741048527 )
( 0.3055404878198516 0.3823971568137317 0.0059324497640783 0.6348928083108657 -0.0701198717737874 0.2823334979784288 )
( 0.3384783991622916 0.423522341499888 0.0010636867018309 0.664268751394225 -0.0679363862808284 0.2747733956915455 )
( 0.3804580809727814 0.4684089195643734 -0.003669365730778 0.6890573267574812 -0.0651083475593152 0.2651482987840918 )
( 0.4334133278332761 0.5171921300610888 -0.0089440695601216 0.7080481408222206 -0.0625755674245295 0.2538111554793274 )
( 0.1556148764935439 0.0156304596459249 0.0372769535464822 0.1250038590844009 0.0079964791087256 0.1501767125950218 )
( 0.1527165546810654 0.0161057812060215 0.0499075961740509 0.1329886822176267 0.0032908121763899 0.1525080487566031 )
( 0.1516574356843598 0.0233225752314587 0.059116831814509 0.1561419080121534 -0.0072821605661513 0.1681311243441714 )
( 0.1537103199520753 0.0364685406072888 0.0640026270381318 0.1836970103641037 -0.0179065286341977 0.1844049747425372 )
( 0.1582337262170109 0.054649649056816 0.0655699779376971 0.2174224975942682 -0.0285485187450985 0.2013610250916435 )
( 0.1633873194558309 0.076781789767494 0.0643116755887294 0.257410534558519 -0.0394720632492738 0.2193809271976037 )
( 0.1690559118160582 0.1012731043824166 0.0612851755661259 0.3014499612937648 -0.0493905171688538 0.2384446027175597 )
( 0.1747696800058565 0.1276136557688001 0.0557373035153214 0.3491987386929713 -0.058971921701348 0.2573611711031367 )
( 0.18154842334453 0.1558322989706958 0.0482541826610165 0.3981712106069036 -0.0668830488848867 0.2718785704568906 )
( 0.1907515227591412 0.1871429128881561 0.0401840761767933 0.4455974481604233 -0.0715202098712372 0.2828774119212738 )
( 0.2034717980177578 0.2225569321756771 0.0316799637563808 0.4939196187658494 -0.0747022383948208 0.2913952995000543 )
( 0.2205150617019403 0.2612713382062709 0.0241624840486663 0.5407818680973886 -0.075070935315691 0.2953965513646772 )
( 0.2416949921648715 0.3019651558091992 0.0170170954186783 0.584682783759943 -0.0742083269624695 0.2947963199614887 )
( 0.2677635172738655 0.3451568026662098 0.0104046768300805 0.6278641665885641 -0.07290155015479 0.290846684537327 )
( 0.2967650132757377 0.3888496529141859 0.0047918541054231 0.6691184993391442 -0.070969681412531 0.2849023308459457 )
( 0.3304609380187708 0.4340841279498484 -0.000607800733528 0.707572791522488 -0.0690971533746567 0.2774543260524085 )
( 0.3729412212284392 0.4843232162875538 -0.0059241486431186 0.7443358596382628 -0.0669085809471642 0.2682678301935007 )