/*--------------------------------*- C++ -*----------------------------------*\
| =========                 |                                                 |
| \\      /  F ield         | OpenFOAM: The Open Source CFD Toolbox           |
|  \\    /   O peration     | Version:  2112                                  |
|   \\  /    A nd           | Website:  www.openfoam.com                      |
|    \\/     M anipulation  |                                                 |
\*---------------------------------------------------------------------------*/
FoamFile
{
    version     2.0;
    format      ascii;
    arch        "LSB;label=32;scalar=64";
    class       volVectorField;
    location    "0.0028";
    object      U_LES;
}
// * * * * * * * * * * * * * * * * * * * * * * * * * * * * * * * * * * * * * // 
 
dimensions      [0 1 -1 0 0 0 0];
 
internalField   nonuniform List<vector> 
13597
(
( 17.078985462353202 1.5582863837736314 -0.0191709580968005 )
( 17.077169451791903 1.598330358790828 -0.019203208611517 )
( 17.086774084368955 1.6819797870682596 -0.0186413875552233 )
( 17.10577417372284 1.7910796779414726 -0.0165362664348926 )
( 17.123397020741947 1.8837307427081025 -0.011750285412068 )
( 17.135071058902998 1.9586260159428448 -0.0057745917694036 )
( 17.149859162948896 2.033358128622748 0.0004919246094708 )
( 17.168058250831876 2.114054771065554 0.0078417156441849 )
( 17.18848014199686 2.195420236000825 0.0149967670128307 )
( 17.21052048680577 2.2768626847761886 0.0220752276279437 )
( 17.233543297445955 2.366740413294755 0.0295414195041609 )
( 17.260344308706415 2.4576848701144893 0.035976495459393 )
( 17.28953036853829 2.5479640270494537 0.0414002438054355 )
( 17.318787679024876 2.6429547902981456 0.0468584107625876 )
( 17.347615340414883 2.74047251587177 0.051018164469611 )
( 17.378123688051783 2.837524211685384 0.0543081270492998 )
( 17.411850991021062 2.931657318933982 0.0580105942085569 )
( 17.446444780469324 3.0264727182278577 0.0598330396617836 )
( 17.48162764766941 3.125353602498245 0.0610880182356983 )
( 16.939316942013495 1.56938334092591 -0.0049928913642415 )
( 16.919543398573992 1.6189966975516312 -0.001782095231257 )
( 16.90948871436828 1.7269862736066015 0.004932704755904 )
( 16.90349595920967 1.8511762895586807 0.0141587736980137 )
( 16.89642962289736 1.9465924717148184 0.0250417392240861 )
( 16.88862412317105 2.034574531732304 0.0370395079546787 )
( 16.885579773513147 2.123738213184059 0.0487442985252797 )
( 16.88332980726571 2.2178734832231184 0.060670031644544 )
( 16.88319413507758 2.314607289202906 0.0716279944024931 )
( 16.883620453102232 2.411130102740698 0.0820806364196454 )
( 16.884014437707588 2.517459132123817 0.0919304925866108 )
( 16.883789368799704 2.6309344804212933 0.1013185060217163 )
( 16.882372109814373 2.7459211847899123 0.1084953870186788 )
( 16.883561371880408 2.864464466322528 0.1136835184082483 )
( 16.88608948064464 2.9809898723560524 0.1179624102719456 )
( 16.89028287497083 3.091914590509103 0.1205444220836208 )
( 16.89512527191263 3.195084620984412 0.1222964596216315 )
( 16.899725035496168 3.301144575790908 0.1230874845623136 )
( 16.908766367307738 3.4071612057796044 0.122986610723462 )
( 16.800493322043994 1.576157199138878 0.0084589311180741 )
( 16.762457857268846 1.6337942117704878 0.0162619795084458 )
( 16.732513634961705 1.7579416592342163 0.0304442784004528 )
( 16.70408950225144 1.8926348707836285 0.0476990849374531 )
( 16.67573444432638 1.9926300939997648 0.0635824288905227 )
( 16.652273377930403 2.0919180833790696 0.0794652171939903 )
( 16.632728191982302 2.1945796349428077 0.0950767185268383 )
( 16.60834485540414 2.2978856448223026 0.110156639942739 )
( 16.585663332837342 2.4064546000931744 0.123153691624001 )
( 16.564340924166565 2.523879708449756 0.1351090983074489 )
( 16.540613026991547 2.647181309085725 0.1451402929243595 )
( 16.516029653376464 2.7795455963514684 0.1530387989647354 )
( 16.49182500873931 2.916893032233244 0.1582209013144973 )
( 16.470038160140938 3.049198854126712 0.1611860995833596 )
( 16.45068591666771 3.171090702875073 0.1630802281357253 )
( 16.434094627490197 3.2804035904457307 0.1630780816376068 )
( 16.41569922659487 3.37925469953276 0.1621298184709803 )
( 16.396256099790016 3.4794313872005382 0.1606953393106037 )
( 16.383827427590536 3.5841536443866127 0.1587222178587562 )
( 16.663310666482342 1.577301395369001 0.0230738154692234 )
( 16.609317115258158 1.643080261504822 0.0352296694295707 )
( 16.563242945439814 1.775852385948389 0.0551609422563439 )
( 16.516106310251768 1.9171284233824788 0.0770544691822749 )
( 16.46732028087092 2.0239189188131 0.0956530859928214 )
( 16.423927943774387 2.1286974288814355 0.1128452899005853 )
( 16.378572664650964 2.240665708520248 0.1289410272057864 )
( 16.328549286238957 2.354205657656721 0.1436063947823045 )
( 16.283457280813064 2.472756933993358 0.1554836387991054 )
( 16.239503434998937 2.600719156334013 0.164766660517331 )
( 16.18944361886528 2.737113828704948 0.1710003898219761 )
( 16.143246971118838 2.880153914782382 0.1740631417866576 )
( 16.099451147925727 3.024603605301788 0.1748217702953881 )
( 16.052675496656878 3.163122995738839 0.1742872627175092 )
( 16.007350050358486 3.28269219584158 0.1727628036616031 )
( 15.965052270539797 3.3858437450727044 0.1709700829725614 )
( 15.923011628770194 3.4799411636831024 0.1690189507025037 )
( 15.877614599064806 3.5756923673331813 0.1665538635064308 )
( 15.835109921210988 3.683027144268142 0.1638048985256105 )
( 16.534424837558245 1.5737322756760774 0.0365013331294949 )
( 16.470720665876996 1.649135916266854 0.0504545563802959 )
( 16.407796041549005 1.7900736669159023 0.0730809088777755 )
( 16.338817526483087 1.9316297885502407 0.0967021238206946 )
( 16.27008359560833 2.040932903472276 0.1148089356212141 )
( 16.203326486282425 2.149082034407455 0.1304910028961543 )
( 16.130113793143646 2.265684222379239 0.1449420647403217 )
( 16.055065465665308 2.3851800666599345 0.1556660104225536 )
( 15.983736222546645 2.506530578378932 0.1633753876047654 )
( 15.909851218582984 2.637453077424439 0.1684518392192001 )
( 15.830674493218575 2.782721405729592 0.1710780891743779 )
( 15.75372880673362 2.9330499221234363 0.1715926752465695 )
( 15.677348357197012 3.0798606925630216 0.1702534485628877 )
( 15.598152012394742 3.217594839186689 0.1683302872299144 )
( 15.520768741266318 3.330872183863203 0.1656654378355519 )
( 15.445615822433084 3.432779272391192 0.1632211943026336 )
( 15.372566580790512 3.5306292839169378 0.1610983215450782 )
( 15.299528235795062 3.629374371251231 0.1586831671386997 )
( 15.225557072527964 3.74185072046989 0.1559468994009656 )
( 16.41628202896736 1.5645076969452112 0.0444070583356695 )
( 16.341269739048286 1.647894202522156 0.0590786092543803 )
( 16.257011926035467 1.7978642132321956 0.0820753859418133 )
( 16.166464054596204 1.938163535412048 0.1047074930202618 )
( 16.077210267263215 2.0466672786759954 0.1210019469661897 )
( 15.9872295265198 2.1567935143237817 0.1340117747934533 )
( 15.891549391724803 2.2713921198426785 0.1452615932966725 )
( 15.789520934811891 2.3892382720537517 0.1521744122096317 )
( 15.6817215554565 2.511529146872071 0.1564344864367413 )
( 15.570395229982443 2.6497340727525747 0.1597346343675359 )
( 15.461133211592976 2.797918765303637 0.1614281529118908 )
( 15.348508136273384 2.947745213681959 0.1603495771186366 )
( 15.237299829900277 3.0952816835533743 0.1584185008766504 )
( 15.129187764837488 3.229725218970471 0.1566833677013955 )
( 15.020780004876729 3.341800056619246 0.1537202815664476 )
( 14.91984104850753 3.441154863350157 0.1505676622746306 )
( 14.820438373126075 3.5378631743878306 0.1476528924031464 )
( 14.72022538596716 3.636903189339962 0.1443272908148234 )
( 14.619092340386132 3.7514296291502953 0.1406804216128882 )
( 16.301380128327487 1.5507233383231942 0.0463825256577503 )
( 16.212546186664085 1.6419299996687104 0.0610793610059805 )
( 16.107433734739434 1.7952593809597104 0.0845847261408284 )
( 15.995570812137965 1.930451271475212 0.1048053114852414 )
( 15.884304802282392 2.03587902572793 0.1184647371059886 )
( 15.766914926082295 2.143121441527178 0.1294764066978477 )
( 15.64466018538693 2.2561360895902878 0.1373347709465367 )
( 15.514473757424742 2.3727813644295503 0.1428398146375167 )
( 15.373817957570852 2.49372706917123 0.1459476860144971 )
( 15.23577106152116 2.632680017266404 0.1481608457762054 )
( 15.094765126851978 2.781567660493915 0.1491663332587554 )
( 14.9467095665525 2.9326878154389933 0.1476264178997863 )
( 14.805897857732122 3.076672946942258 0.1456147251866805 )
( 14.670418605606434 3.205873662130533 0.1432847765054155 )
( 14.53490628201286 3.3195532429231047 0.1395828007426814 )
( 14.40755146992268 3.414789063555081 0.1355464934104359 )
( 14.284505710304709 3.5076590541467887 0.1314563477818141 )
( 14.158028996912956 3.609793975786241 0.1265275998626543 )
( 14.031024693502196 3.726496889981607 0.1207074882426643 )
( 16.194109286421362 1.5335642576386803 0.0439058599442089 )
( 16.088896839790674 1.626689766335524 0.057143741407247 )
( 15.961828794323702 1.777283497118474 0.0805991942918309 )
( 15.82702661263702 1.9067272348985624 0.0999505895027924 )
( 15.690652308954704 2.009412859850355 0.1119566422306328 )
( 15.54700989157254 2.114861631603977 0.1213691614939782 )
( 15.395874849498377 2.2263384225662555 0.128318362097436 )
( 15.240419822397806 2.3381747635495085 0.1331369961485073 )
( 15.071987948486456 2.456012789923613 0.135675266546704 )
( 14.90586648057056 2.5962345201176475 0.1372150549728747 )
( 14.732370429556516 2.745234981955247 0.1372848472912593 )
( 14.556242010326429 2.8970158174437515 0.1353687312418595 )
( 14.389008928183005 3.038858431262664 0.1326746145930591 )
( 14.223943387304695 3.1591701919883994 0.1289351628301155 )
( 14.069359498401678 3.2642783948967318 0.1238193432718775 )
( 13.918311441815336 3.3577800531250404 0.1179839897392528 )
( 13.77015051712889 3.452512420711932 0.111952505007929 )
( 13.620469617397566 3.5591304607541137 0.1054258381789547 )
( 13.4708141850497 3.679788274149257 0.0981769614707631 )
( 16.090864411233568 1.507344142127392 0.0367983573970449 )
( 15.96656913764187 1.5969542572862336 0.0492023892220403 )
( 15.816290176260557 1.7443214743078466 0.0727619956787139 )
( 15.659927789569188 1.8688173836843636 0.0916515478973425 )
( 15.49763561705499 1.9703483684053176 0.10415730240192 )
( 15.333313399375587 2.0710489635828417 0.1130600680104096 )
( 15.16077308130597 2.175430073632777 0.1200749075772976 )
( 14.981939577429362 2.288209269310455 0.1250203597666555 )
( 14.79108709438314 2.407830122965024 0.1272162790948566 )
( 14.589064925085111 2.542731209600816 0.1279033262767329 )
( 14.386667523624505 2.690362360792672 0.1266214592053982 )
( 14.18976268436143 2.838691924217824 0.1237283987907287 )
( 13.992775637968656 2.9768180687804446 0.1191237628575867 )
( 13.802512981788036 3.093381028760789 0.1135147077760983 )
( 13.630166471174928 3.1919267201420185 0.1071668492318306 )
( 13.456732418467633 3.2856383693628963 0.0994455784006837 )
( 13.284164360771708 3.3806040021054984 0.092163199910285 )
( 13.111227652949433 3.487969986881294 0.0853064268183809 )
( 12.935455792986255 3.612579132427644 0.0782726329240526 )
( 15.985130027326738 1.4775654512133047 0.027408008530401 )
( 15.842111991435363 1.568699592312108 0.0417314270273347 )
( 15.670785988576322 1.7106775514319117 0.0663501530707039 )
( 15.494435066270578 1.8242007903136173 0.0846146025569744 )
( 15.3138293898586 1.9228171372735343 0.0972642376909453 )
( 15.130261348218433 2.015244523925583 0.1066353257827871 )
( 14.934298953107856 2.109920862888727 0.1133439525341181 )
( 14.726841502381207 2.2191305503999117 0.1179562113906424 )
( 14.515832035707277 2.3359230306807404 0.1197119648898786 )
( 14.29147741743308 2.468030292703739 0.1187469039665488 )
( 14.06595848342764 2.617557374053343 0.1160776059422581 )
( 13.846510361536724 2.7654457441460365 0.1119959948251845 )
( 13.62707457811022 2.89665473590399 0.1058209205380568 )
( 13.41888233953921 3.010807083099875 0.0986233514382308 )
( 13.2221058486406 3.1070686731612818 0.0911783926521227 )
( 13.023894868381056 3.196701533972514 0.0833101238816462 )
( 12.823839617328918 3.289039045047448 0.0761637845656914 )
( 12.624955039235267 3.3958124583529767 0.0694886904576785 )
( 12.42437918307882 3.5258035767224074 0.0620013760978907 )
( 15.884542733170584 1.4462107649046314 0.0193235466033269 )
( 15.72605106422618 1.5377704044636906 0.0360204079523407 )
( 15.529684888716568 1.6712497524295176 0.0615052372038321 )
( 15.3382350592687 1.7725732082868118 0.0792996752060559 )
( 15.142147966889375 1.8632248315985684 0.0919543523456237 )
( 14.936883208586144 1.948899678191507 0.1013163296589606 )
( 14.720452358355 2.0347998395264533 0.1073164494076533 )
( 14.49421318172018 2.1343621931963983 0.1111066362773791 )
( 14.261268412757293 2.2507438454678668 0.112270826457809 )
( 14.020077836748618 2.382805607421497 0.1097344920847871 )
( 13.772976332483232 2.528832427106939 0.1057748891402359 )
( 13.52424184384029 2.6780336839603667 0.1004855282394571 )
( 13.289202448128158 2.804476456194575 0.093372235693231 )
( 13.063350048820816 2.915165969222821 0.0857744009690012 )
( 12.837369319255531 3.0093535523749315 0.0778711137368598 )
( 12.61067440187918 3.093643272964143 0.0702476845254148 )
( 12.384387318446604 3.184502352848765 0.0625458813550228 )
( 12.163415159447164 3.293666008829009 0.0545867358151736 )
( 11.93740346537395 3.430529554397677 0.0462451898095057 )
( 15.785510416340324 1.4088656436045524 0.0132573612787753 )
( 15.608823525645288 1.497937652277598 0.0318263851197043 )
( 15.391773877110026 1.6239649398098772 0.0579967685420896 )
( 15.188571885478826 1.7132018518295085 0.0754842023746283 )
( 14.976797561940709 1.7922693756305854 0.0882304576931403 )
( 14.753163574079815 1.8724974370621683 0.097195204288541 )
( 14.524744465654525 1.958539936215374 0.1024027159814324 )
( 14.282127861549217 2.0544444509121047 0.1051373065825937 )
( 14.029612662324377 2.167660612641624 0.1049506145790374 )
( 13.768686973679468 2.2946259411734062 0.1016688322558654 )
( 13.50059636171336 2.4335438746724543 0.0969268310198653 )
( 13.2289487032453 2.5746928396767976 0.0903152915574037 )
( 12.968676101967034 2.700229545929718 0.0821926542228734 )
( 12.716240715779058 2.8129095450870487 0.0739053772466711 )
( 12.463212326149014 2.9027339646839727 0.0658240600769081 )
( 12.215432591798924 2.980381719377705 0.0579024719560759 )
( 11.971311337019944 3.070775341501398 0.0493337074104546 )
( 11.726996188000664 3.18824412038714 0.0409190836543219 )
( 11.47427938810698 3.334709383078988 0.0345032691775441 )
( 15.684755749898336 1.361630115444876 0.0081174053528524 )
( 15.493813088147457 1.4478107412279466 0.0291844719500007 )
( 15.2663410021155 1.5680753700952457 0.0560271495286834 )
( 15.048887243203264 1.6509735761513822 0.0730787310147998 )
( 14.824537668869276 1.7256952346088623 0.0855984284037346 )
( 14.58771051618671 1.8009581372517274 0.0941605360777558 )
( 14.344725217001852 1.8822887849355685 0.0983723789611307 )
( 14.084293596625404 1.970490211151906 0.0999222798677076 )
( 13.812875188350851 2.074675507813721 0.0983661518878318 )
( 13.534820985943735 2.2004053917796806 0.0940063856532889 )
( 13.243482966806004 2.3398694891094127 0.0885508718171611 )
( 12.951229841269155 2.4732097470538124 0.0805358286230711 )
( 12.662871807310792 2.593610572422324 0.0718785210723921 )
( 12.378556792688572 2.7005746508808444 0.0629347416606316 )
( 12.108504187435289 2.7813438378185182 0.0538564943988314 )
( 11.84835591777814 2.858490733092116 0.045969068988224 )
( 11.583189316114666 2.9529732371103607 0.0389353529708975 )
( 11.30999906553668 3.075425450324732 0.0329461687854223 )
( 11.022220008464146 3.236419554288541 0.0298062030761964 )
( 15.588206810725888 1.3056972926495456 0.0044253362328933 )
( 15.390932647094262 1.389652225480294 0.0274730850063846 )
( 15.151460544346351 1.5049602154870896 0.0549900839995844 )
( 14.92157933485627 1.583079885628583 0.0715722647680108 )
( 14.684492878811428 1.6533931653346925 0.0836143694827002 )
( 14.438978264371002 1.720607988946057 0.0914245249675259 )
( 14.182590589709584 1.794654260543827 0.0950266515291651 )
( 13.912649857553934 1.878559828023568 0.0953021298067667 )
( 13.622822578235288 1.9753097412958385 0.0925100006052954 )
( 13.320908121751438 2.096368211275213 0.0873452209503328 )
( 13.005666290881408 2.233797889484633 0.0804762875546685 )
( 12.685558301851312 2.367405078724698 0.0712472068270865 )
( 12.37313687540946 2.48533759172413 0.0622661852043887 )
( 12.072048008213574 2.5797965956557523 0.0530514894714733 )
( 11.78518442053219 2.6534299870865734 0.0440382386914917 )
( 11.500279954301067 2.73489834526706 0.0372444183425877 )
( 11.20748382596089 2.839493357056373 0.0325255526669307 )
( 10.900627771374156 2.962983774507026 0.0296882105614511 )
( 10.56827425319773 3.130079277633791 0.0290806505917555 )
( 15.500197002635424 1.2492624599495492 0.0031733416009197 )
( 15.292234221318209 1.330942395579373 0.0275013620581712 )
( 15.033478947046865 1.4415427132502217 0.0551644216209649 )
( 14.795463513045956 1.5089480178403438 0.0711202462697538 )
( 14.552637476872327 1.5714067152379776 0.0818369766192985 )
( 14.301283167291023 1.633591862306023 0.0883980450045751 )
( 14.03262650623754 1.7001644717567703 0.0915406686811336 )
( 13.746499910175284 1.7806451153767688 0.0907318576168008 )
( 13.443616902537125 1.872201857236496 0.0870246790911229 )
( 13.121741296296356 1.9843428547064397 0.0810236699961006 )
( 12.779210957658936 2.1178326907754688 0.0724942241703358 )
( 12.430604783266428 2.246959331755954 0.0628176157728985 )
( 12.09342420241152 2.362331798363245 0.0535826464993982 )
( 11.781030707896138 2.4506034167361053 0.0446793162480554 )
( 11.47866967785918 2.5214996637051024 0.0378684788730999 )
( 11.167375340472155 2.6045826279834907 0.0327197455807992 )
( 10.83895090909906 2.7125388589042063 0.0294567138606121 )
( 10.488614263250264 2.84741298968482 0.0288395083453836 )
( 10.118764901458093 3.0339694317165056 0.0299122039775509 )
( 15.418980407734658 1.1943102471687457 0.0040069323685801 )
( 15.2024132561999 1.2718026006618115 0.0289729668275129 )
( 14.931270494396534 1.3747928898559132 0.0558168885931312 )
( 14.684143967146136 1.43035878853617 0.0711117388436115 )
( 14.43566399937228 1.4820878704657805 0.0801425178723105 )
( 14.175988678951134 1.545270856033763 0.0851802634778359 )
( 13.89682821743462 1.6034778010147417 0.0872146248827087 )
( 13.59236659679091 1.6718087291208032 0.0858574283289391 )
( 13.271251076599556 1.762530088837989 0.0820136705888414 )
( 12.93087719635937 1.8672873729258364 0.074615136787721 )
( 12.557556062303725 1.9986830993121103 0.064687842530811 )
( 12.179435670522624 2.126082952775401 0.0552102808629162 )
( 11.831228397488765 2.230837812473059 0.0466077763923398 )
( 11.5101535881705 2.3138391003338654 0.0395231997879707 )
( 11.18820647440623 2.386388102741517 0.0347234906661346 )
( 10.847553147485462 2.4709225567360504 0.0308327093446581 )
( 10.47816026376556 2.5798646990082483 0.0301881014136138 )
( 10.082203482385696 2.730075900393615 0.0301338632732541 )
( 9.692652031228862 2.9545506889739555 0.0289249991716144 )
( 15.346028302275036 1.1383275782402678 0.0062016326834884 )
( 15.118325495538617 1.2082117662163463 0.0309472867962284 )
( 14.83976653184911 1.305575417834364 0.0567015108602061 )
( 14.590769689558105 1.3545128564294204 0.070800500116567 )
( 14.333754801523984 1.3986345550609685 0.0791885192399608 )
( 14.05927086656153 1.454148440860956 0.0835930472573561 )
( 13.767608651837236 1.5020220653109624 0.0844704433265521 )
( 13.456293641135373 1.565632521612116 0.0820954256955031 )
( 13.115801880364366 1.6530681762945616 0.0770604309873171 )
( 12.750085221876269 1.746161223826013 0.0685622783672411 )
( 12.363530946745572 1.8691856052097275 0.0586458913562562 )
( 11.963329297498683 2.004212206129006 0.0494650244017899 )
( 11.60008030058275 2.102763343872032 0.0420639727893522 )
( 11.260442382995436 2.1752823095531557 0.0366656162076849 )
( 10.907781149332974 2.2488644108389195 0.0323106262010162 )
( 10.527047625258854 2.329993393764982 0.0296960627268705 )
( 10.119281930089052 2.4461894638503923 0.0293640161673226 )
( 9.699973807917226 2.61788498746007 0.027432146502475 )
( 9.307624291820757 2.88861971799159 0.0244305133903381 )
( 15.27631960333009 1.0801295523415853 0.0095633277621409 )
( 15.041691591239898 1.142793376961562 0.0337277308822178 )
( 14.756904719378484 1.2314896269361018 0.0581766470824942 )
( 14.507220152775291 1.2745635752574904 0.0707510620956141 )
( 14.243413773537544 1.3172005438698529 0.0784929878756324 )
( 13.95589915484886 1.364158193034679 0.0820934099026026 )
( 13.655699401447244 1.3986802308390076 0.0820839124377883 )
( 13.331265064478872 1.4594145351473626 0.0788478076672468 )
( 12.969625441908072 1.5438874854335054 0.0719818107072768 )
( 12.583434005597754 1.6341487663484042 0.0631813182485537 )
( 12.176961806556683 1.7426228343822352 0.0542258423271093 )
( 11.762423389535348 1.8597824850539169 0.0457950770081512 )
( 11.382833995410351 1.957640614134705 0.0391947725406683 )
( 11.013858657251262 2.032366875589352 0.0344552994004541 )
( 10.629245623900552 2.095970033058711 0.0302810522419245 )
( 10.217049556382324 2.1766793640101376 0.027073412890048 )
( 9.778218860675976 2.301268874960177 0.0254512752317584 )
( 9.351306091847832 2.5091796409249625 0.0218617262586393 )
( 8.93685221798862 2.847745516776977 0.0181818494271753 )
( 15.214794521937982 1.0196115098004543 0.0128284315772389 )
( 14.976007462905024 1.0745185874908432 0.0363809195968294 )
( 14.682083488289408 1.150740744747302 0.0594865871412097 )
( 14.430427899089258 1.191781424612845 0.0709155088997643 )
( 14.160113070834344 1.228836914048263 0.0775622173086528 )
( 13.859110257381117 1.2690406361080555 0.0801058737010561 )
( 13.557656473750214 1.301777565220248 0.0795020984950945 )
( 13.21966028648286 1.349154824103437 0.0755051092845262 )
( 12.835024307926728 1.4262792932399522 0.0673618607333641 )
( 12.426186109589716 1.5167377024733484 0.0586963935491473 )
( 11.992242711556262 1.6187290135627166 0.050517179589205 )
( 11.571762654255554 1.7201688400993902 0.0422842836254307 )
( 11.170968503644524 1.8058022836971492 0.0360236998820136 )
( 10.769150671810012 1.8785094444890011 0.0324731168801551 )
( 10.362368748788784 1.942437319582224 0.0294739985436454 )
( 9.925930884576422 2.030192070335425 0.0258866000640595 )
( 9.46328663829822 2.169064664580283 0.022619812652691 )
( 9.018216028584575 2.4105662048765217 0.0181076518789268 )
( 8.504952416438542 2.778599269292392 0.0117400372768664 )
( 15.164599448801058 0.9576483721493904 0.016702731840522 )
( 14.91676515030708 1.000951427929324 0.0392671477970048 )
( 14.615039666887428 1.068301769967991 0.0609637143973607 )
( 14.359039012077483 1.1058302243855105 0.0712869697724816 )
( 14.082758897110091 1.1389969330980123 0.0769542042802286 )
( 13.771103517973778 1.1772612450735345 0.0785759379527134 )
( 13.457157054672216 1.2047516260230122 0.0772375541226745 )
( 13.113046961030811 1.2404970976519811 0.0724204978919395 )
( 12.717671311068871 1.3056027676106507 0.0640122878767711 )
( 12.286189384320874 1.3843183704521558 0.0554376990458378 )
( 11.830291314462286 1.4857735856532053 0.0475769110958109 )
( 11.394412989792066 1.587028835554729 0.0390859132861686 )
( 10.967621225601082 1.659501385270354 0.0329938232450762 )
( 10.5431500165775 1.7205878892785609 0.0297668124388595 )
( 10.103665176432443 1.794481923688871 0.0282559017110541 )
( 9.64441376181034 1.8868749389869992 0.0265402862002975 )
( 9.169985546923284 2.04152190872112 0.0211426104662635 )
( 8.650334655958066 2.313254156263356 0.01485560061588 )
( 7.974508397179217 2.6500259195518825 0.0060387762606965 )
( 15.117875976696748 0.8902532562202297 0.0209711002951287 )
( 14.867420000027352 0.930233199962817 0.0421943160413941 )
( 14.563505384470744 0.989392861380786 0.0622940461714428 )
( 14.298353484754202 1.0145971068757225 0.0715535529698557 )
( 14.014809038717964 1.0457617604622638 0.0765489796730949 )
( 13.696726360926167 1.0849222806386267 0.0773845099088633 )
( 13.368627063406112 1.1030901075010404 0.0752360675427169 )
( 13.01826391501247 1.1296991767417646 0.0694891838962037 )
( 12.603640923132822 1.1869413830437396 0.0612163040604742 )
( 12.15392810243788 1.25770802068078 0.0529440816214235 )
( 11.681481615036333 1.3495572138407186 0.0445267942658712 )
( 11.215522729704016 1.4438717481944008 0.0367982355343759 )
( 10.77424327624869 1.5179753156350415 0.0316047983304921 )
( 10.342189130942396 1.5741834887025723 0.0274527798538021 )
( 9.87287869675651 1.645769122531002 0.0247235879511538 )
( 9.379502753579386 1.7401604004062086 0.0212797938899883 )
( 8.884085317809703 1.9070210688333065 0.0169779610042836 )
( 8.26341864231162 2.192151162890461 0.0097045752738302 )
( 7.358292476485207 2.4564769552822754 -0.0002496860491731 )
( 15.077339501267527 0.8208215580612593 0.0243617783986553 )
( 14.82505506275022 0.8598940655080602 0.0446003251734935 )
( 14.517241672847154 0.91442020465514 0.0633820610272326 )
( 14.247501705081088 0.933674438698053 0.071656257976998 )
( 13.953348330851616 0.956975243467904 0.0760550264843232 )
( 13.622273418436851 0.9803153746384392 0.0764734341928173 )
( 13.284603844713684 0.9934496979344662 0.0732808611735885 )
( 12.92814445716422 1.0143663619910197 0.0667963841504263 )
( 12.486892921865952 1.0629210510275453 0.0584690153834896 )
( 12.018376773317389 1.1335869719491192 0.0501797877656259 )
( 11.542639331416956 1.2160102306230651 0.041672354263292 )
( 11.06352815782334 1.306634010578538 0.0355547466379728 )
( 10.605176392512904 1.3839568545141276 0.0308338503751582 )
( 10.144872524649832 1.4292947841982817 0.0264228529991341 )
( 9.66169103387101 1.4892866165163137 0.0227427013265888 )
( 9.14440689706148 1.5854151058938106 0.0168272479084883 )
( 8.57736154779017 1.7683162464806428 0.0107390185685454 )
( 7.887171792031912 2.0589578877100205 0.0008694945698336 )
( 6.619344558448328 2.1758671842488484 -0.0070846375755657 )
( 15.042134962261244 0.7569825037471242 0.0281631238625401 )
( 14.783966093163473 0.7891640372926282 0.0479552444596773 )
( 14.47280427792467 0.8380534407962883 0.0653049050420025 )
( 14.20214717820502 0.8562949313851356 0.0726500695129033 )
( 13.898218793277936 0.8698933630148517 0.076434161906928 )
( 13.560740874454714 0.8794159570696785 0.0755739609669382 )
( 13.213308768182664 0.8928309798033526 0.0705374565968104 )
( 12.838031934280632 0.9138787709813716 0.0639398958101452 )
( 12.377603680812264 0.9474413127482284 0.0559278974383048 )
( 11.886726409511434 1.0101632050665896 0.0472407500382064 )
( 11.405304489719098 1.0825959215625838 0.0401144888384252 )
( 10.928780737157789 1.1569370568759128 0.0341979600797313 )
( 10.454280095530606 1.225288018332763 0.0285946829945238 )
( 9.962834677235874 1.2699328580955442 0.025745531837459 )
( 9.453419184328034 1.3213713603575106 0.0242886574830495 )
( 8.912074465163265 1.417237137815609 0.0178567257252285 )
( 8.261149236214449 1.6089030234388808 0.0079636401578212 )
( 7.392484135362389 1.853856683963211 -0.0023291361020669 )
( 5.913721149895869 1.859798476639027 -0.0089464551772439 )
( 15.013777417869976 0.6912933619715713 0.0325254812754857 )
( 14.750015939923976 0.7201802122010929 0.0513914644312658 )
( 14.430701228885098 0.7627586918590845 0.0672893251490393 )
( 14.157601405896775 0.7736997510051093 0.073393862433349 )
( 13.848167557396284 0.7842587688852043 0.0765890135857942 )
( 13.50991276514797 0.7948795170240374 0.0748353082711053 )
( 13.158317670686545 0.8047712743761316 0.0683823463610706 )
( 12.760910027637568 0.815670964008204 0.0614516891665497 )
( 12.289115553095584 0.841708157618467 0.0538906627351046 )
( 11.790026821139609 0.8958936987308188 0.0450989682450649 )
( 11.290766607169248 0.9576734187596566 0.0381456645140004 )
( 10.79137022540275 1.010439972653126 0.0324672252538833 )
( 10.298171276157536 1.0593497014191082 0.0267484898766688 )
( 9.788994327906895 1.0997046082411095 0.0230356328031619 )
( 9.258151678511537 1.1504148039776116 0.0211091767745697 )
( 8.67262196684393 1.2604774481727985 0.0141646824167364 )
( 7.961312248663995 1.4437459083256166 0.0059753607785583 )
( 6.873160747876769 1.592404852488095 -0.0021064661659924 )
( 5.315000215731739 1.55611766278641 -0.0101271476201712 )
( 14.991761798866117 0.6231827503080863 0.0367950731201927 )
( 14.726714997458563 0.651579624033757 0.0539962273958718 )
( 14.39771097483629 0.6905417779429173 0.0687363830954496 )
( 14.116908464805231 0.6931367446172682 0.0740314035344647 )
( 13.800975453212306 0.6959786189327194 0.0761456862138462 )
( 13.458426097962777 0.7038347826693653 0.0737659155662604 )
( 13.102088097825597 0.6998223934472494 0.0671427668360497 )
( 12.693020433962827 0.704210154566529 0.0603412605978326 )
( 12.21946022706793 0.7378261065262803 0.0530754601965445 )
( 11.713515580292144 0.7835321570537351 0.0437160955068316 )
( 11.1901251730471 0.8365826667521514 0.035547428974226 )
( 10.6678037300086 0.8702730857602266 0.030897046177187 )
( 10.156702548202476 0.9015248127849737 0.0254190920163109 )
( 9.618227177963432 0.9297578213788632 0.0204107244985441 )
( 9.069538958697008 0.9763307758515436 0.0146988279576903 )
( 8.423315626354537 1.0920784851552812 0.0065454106756786 )
( 7.640646289290579 1.2537560106186867 0.0007698108319384 )
( 6.446598517031228 1.3344111991988865 -0.0044797493277331 )
( 4.772147183638363 1.2545756623523658 -0.0101385856488153 )
( 14.973220370265697 0.5639616347719091 0.040332079958641 )
( 14.705688411303257 0.5858950487143084 0.0566032121775264 )
( 14.371246808262518 0.6167735284704534 0.0702828289292667 )
( 14.083218659178694 0.6154878305299271 0.0748840267177293 )
( 13.761116867032092 0.6089131704950755 0.0757435852980364 )
( 13.41668210276401 0.6066560603871187 0.0722923641855249 )
( 13.047905116030757 0.5922200543356004 0.0657488591089466 )
( 12.628876911035448 0.599490262801467 0.0596174170931908 )