/*--------------------------------*- C++ -*----------------------------------*\
| =========                 |                                                 |
| \\      /  F ield         | OpenFOAM: The Open Source CFD Toolbox           |
|  \\    /   O peration     | Version:  2112                                  |
|   \\  /    A nd           | Website:  www.openfoam.com                      |
|    \\/     M anipulation  |                                                 |
\*---------------------------------------------------------------------------*/
FoamFile
{
    version     2.0;
    format      ascii;
    arch        "LSB;label=32;scalar=64";
    class       volScalarField;
    location    "0.0072";
    object      k_LES;
}
// * * * * * * * * * * * * * * * * * * * * * * * * * * * * * * * * * * * * * // 
 
dimensions      [0 2 -2 0 0 0 0];
 
internalField   nonuniform List<scalar> 
13597
(
0.2015035033155831
0.2061949624584168
0.2167565691303673
0.232899654670417
0.2479975855158869
0.2598864224141838
0.269821326317619
0.2791023566770501
0.2869855309588727
0.2926249714857912
0.2976828240440689
0.3018315474132586
0.3048454738197596
0.3070887938851966
0.308216054268185
0.3099092250479966
0.311863036635943
0.3125759775229959
0.3133710781906136
0.2212140005731027
0.2310780945024298
0.2478467745617376
0.2692570532265735
0.2844628733201373
0.2957379729073274
0.3044063992910739
0.3117139777717519
0.3175657121440328
0.3211779742875529
0.3238311987940147
0.3258437789931269
0.3277396375072829
0.329947910200041
0.332015112056488
0.3339712225371513
0.3357529994114194
0.3379149157559808
0.3403332609826426
0.2426428255189492
0.2552628455584667
0.2729683232057723
0.2915092558431351
0.3020775622496021
0.3098324906799116
0.3147727219817607
0.3184722477908754
0.3218707567767186
0.3247624493470173
0.3277216547232392
0.3317688849715183
0.337023003062269
0.3420411106539838
0.3467720551824158
0.3509680488219485
0.3541448772808222
0.3569865645345759
0.3589644704374728
0.2589371191271569
0.2703351917714365
0.2833665714291801
0.2953335071477784
0.30173666599748
0.3063975984169225
0.3103594948132521
0.3147178364027843
0.3194734916949578
0.3244718329865704
0.3296429777917353
0.3358207391592996
0.3418766246542773
0.347447471952129
0.3518927321554952
0.3548122739327543
0.356368527664858
0.3574895249543255
0.3582810442765514
0.2670032297760652
0.2729163466501546
0.2814057060250947
0.2905053638297962
0.2958248361231501
0.3008278662804393
0.306157377556482
0.3122910968201028
0.3181482557233909
0.3242276972652835
0.3309826315651149
0.3370737428652846
0.3420138233785986
0.3462128355756873
0.3488522765460301
0.350565850452535
0.3514743722310509
0.3523759672060559
0.3535616475783386
0.2653817867936744
0.2669461935923682
0.2743716151368764
0.284664137152386
0.2917027671103553
0.2992572305986001
0.306513880149489
0.3138449771546188
0.3201658888072218
0.3259259082116029
0.3315229655088467
0.3358362076675654
0.3392136448883466
0.3419796980000933
0.3444580546661962
0.3467672705654301
0.349505419632913
0.352814086269392
0.3570372977306966
0.2577033834995343
0.2594662473500685
0.2698326788421997
0.2826418717503122
0.2925521333549055
0.3022476716709331
0.3102870975649382
0.3167006725364983
0.3214056974018375
0.3253703429855791
0.3290219703650674
0.3329090811280655
0.3374919645116419
0.3424813562047592
0.3480152302517325
0.353741466454518
0.3601474787144907
0.3677069655545726
0.3762716123424
0.2502949498931541
0.2545561976583039
0.2695844907607441
0.2856362758626131
0.2973898558860351
0.3071385362259732
0.3131495733586114
0.3175205427096255
0.3212481594843495
0.3241548275781192
0.3283703463660395
0.3351646560866254
0.3438544158083061
0.3533318959233356
0.3627986310019938
0.3729630715988641
0.383770641383758
0.3955352041841385
0.407711831196509
0.2451026047135396
0.2537358948281734
0.2735132894686356
0.2913536256316039
0.3029191036458502
0.3108008854060601
0.3144079927782638
0.3175961504474928
0.3216466864712619
0.3264119723290058
0.3342301500859876
0.3455993275574884
0.3591084713375916
0.3734370164383208
0.3869872496059853
0.4013881039415919
0.4161273407079391
0.4313774066389698
0.4469117335021841
0.2451162131122835
0.2589339382917213
0.2807303209782061
0.2975603041755086
0.3073439479670081
0.3126257109270474
0.3151868619307095
0.3189216910317207
0.3245787425924463
0.3332571195088757
0.3463549626947147
0.362660481656363
0.380536182894898
0.3989494926674882
0.4170483164046712
0.4355600767920767
0.4541251278617351
0.4727017159351314
0.491456208217703
0.2495346288127773
0.265888675424467
0.2880570211213115
0.3023611807625612
0.3094656468602779
0.3130842592560396
0.3165910069515823
0.3226308584629061
0.3316654906122007
0.3449487556751973
0.3628817756813867
0.3843578903757503
0.4062470321659541
0.4281920515053328
0.4509029845695492
0.473621906623436
0.496385079878299
0.5186600796385243
0.5413791949567349
0.255362118532475
0.2724676985774534
0.2937486320310391
0.3052231709565327
0.3106611368860235
0.3144049066382067
0.319870118564936
0.3288808573297847
0.3418080097978533
0.35984191769975
0.3824371686101032
0.408612270733312
0.4351475802393507
0.4614150306102505
0.4884594350943765
0.5150337430228287
0.541687643218927
0.5691046453474511
0.5974631408278097
0.2618651344664537
0.2791711878676478
0.2977896429384109
0.3069519302598343
0.3120913499571189
0.3170532093222214
0.3247572094023125
0.3373583408890585
0.3548399899036394
0.3767688570766362
0.4043404919278784
0.4348853677804896
0.4660122446827685
0.4976027842709403
0.528513816014735
0.5591075499924562
0.5915448896285781
0.6256432933808305
0.6594318434980239
0.2681679770422926
0.2837216580850586
0.3000358528487354
0.3077631872463042
0.3134617443012187
0.3205731824658245
0.3311770555661609
0.3468417101972536
0.3686060431093664
0.395423725190981
0.4273669187421118
0.462866174462099
0.4986840638536614
0.5344969119944276
0.5703389585255456
0.6075410515167315
0.6474549668913481
0.6879768119598482
0.729398527008398
0.2724601826663609
0.2858650821751377
0.3015828488093588
0.3086425781828656
0.315587055265839
0.3248986805250674
0.3387121004207147
0.358319642276091
0.3837019978516985
0.4151436608200662
0.4519503884278172
0.4924171319771025
0.5336957106781912
0.5738935063037073
0.6157180526233298
0.6607490946619518
0.7081092542851648
0.7576053658888
0.8184545636960904
0.2748387990335362
0.2868727399213775
0.3020011111115681
0.3094791180372849
0.3179642094056531
0.3295351996307262
0.3469017879525402
0.3705247267828536
0.3999353612332839
0.4356969097738499
0.4781736863894774
0.5242876659372194
0.5703174049464478
0.6157473969427096
0.6641451451303634
0.7165460572990662
0.7735803407543865
0.8429186344015109
0.9388914068744316
0.275519727480381
0.2868601352988009
0.301909436603686
0.3102166859706397
0.3205987371110617
0.3353205304751134
0.3559825019007109
0.3824070973577504
0.4159639951274229
0.4567401701558291
0.5026766937177963
0.5542422482110357
0.6064614520291007
0.6586503908506858
0.7147634117917337
0.776728133898149
0.8506001535983754
0.9527731018425156
1.0809858208607228
0.2749127785388905
0.2859907933796246
0.3015949099580413
0.3112544839965056
0.3235814507410626
0.3413000109585871
0.3645584316801289
0.3945465608601446
0.4326247482118893
0.4771836931391355
0.5278621975691843
0.5851992806100142
0.6437386421655803
0.7036473486854941
0.7685383744076579
0.8431317503026251
0.9449482157711968
1.0840452542216426
1.2050804296056656
0.2737018723656744
0.2848965237004651
0.3012334923588144
0.312656329863321
0.3270564929456784
0.3473690528308514
0.372690556258209
0.4060955760851481
0.4485408244390366
0.4976699013374399
0.5553117653643076
0.6176807555554986
0.6825077255188913
0.7510892955784592
0.8255790947264612
0.9211715201177962
1.0596826237956556
1.228453833124257
1.2994623538473182
0.2717093843605139
0.2830181842941182
0.300826258309359
0.3142069074336994
0.3308586027584525
0.3538343315583174
0.3821120412816142
0.4177610338407305
0.4633825043751157
0.5180818085072957
0.5824875136731467
0.650850858793856
0.7223179626086331
0.7985225758730496
0.8906778221887621
1.014077806386292
1.1895234988217858
1.368176467792758
1.3613201391242118
0.2685469734878528
0.2804817157338348
0.2997466491841368
0.3151311946505171
0.334029390441946
0.3596516114785607
0.3911604460316534
0.4289019494120514
0.4784999675038046
0.5383734196376724
0.6091223436218446
0.6859958174337687
0.7632229582505478
0.8462655739058254
0.9596259982240706
1.1202486032368146
1.329347331688756
1.491291166038055
1.3565922553850562
0.264858187185319
0.2779657804437984
0.2989751880971201
0.3160692957366272
0.3374549519024876
0.3662043447308677
0.4001049319578812
0.4400184664238778
0.4947101972911692
0.5596140575224341
0.634348816952882
0.7161476377599938
0.8002079671969345
0.8987862147978989
1.033792651390127
1.2346929013142054
1.4667335988266146
1.588050414549435
1.2616962184683769
0.2614221521909359
0.2760265219176853
0.2985390833713403
0.3170615289945548
0.3407212425920956
0.371855400429629
0.4082241631049567
0.451671849082568
0.511163798899874
0.5821232425603142
0.6607456163683451
0.7454590190370871
0.8371203194197342
0.9530634485907082
1.121046353151821
1.3585294553747624
1.596879254521537
1.6160615347236278
1.1549513057846406
0.2578298412852387
0.2738888254693694
0.2982466407067561
0.317952393420593
0.3435268848903322
0.3762262743846213
0.4144871484779251
0.4620747784858611
0.5251182815198422
0.6001138450099079
0.6844658084554966
0.7776294191163986
0.8794397788009164
1.0124561029408063
1.2142856668596405
1.4827184318964632
1.7149121996442915
1.5959448536029928
1.057615822855156
0.2542866365567024
0.2711444047903808
0.2976213688913129
0.3190620909440193
0.3463273387629621
0.3808237715736332
0.4211319066405654
0.4717278341049522
0.5369152484266067
0.6153292614167017
0.7067871279868277
0.8088017161371649
0.9217346202487782
1.0820012376189254
1.3114453854146289
1.5974394406825
1.799796378737923
1.56379767214126
0.9485637615153903
0.2512559893012354
0.268646783108515
0.2965687521764495
0.3200244062573381
0.3491011204739365
0.3850462279619965
0.4280826747487871
0.4812350254974876
0.5489004212318452
0.6331354914232918
0.7299649779222873
0.8378998909602645
0.9637756719310616
1.1489313355659314
1.404863153255907
1.7049796051370438
1.8259295532330424
1.488817853049554
0.8668341666505451
0.2482261853905988
0.2661745759392338
0.2955311097308316
0.3206612960052948
0.3512701332896688
0.3887566868554359
0.4346140860758445
0.4909971949295053
0.5619206369780604
0.6508795577675924
0.7515967000088826
0.8643842089758994
1.0042976077316403
1.2082604683228606
1.4936040947248626
1.7988714094568874
1.8337333502998652
1.403884961134536
0.7981879572264572
0.2448330620074371
0.2636806472345017
0.2946250050938175
0.3216669764024318
0.3533570437381265
0.3922731976052338
0.4402208374586187
0.4992681273154371
0.573684147964388
0.6679415177313334
0.7736127696991028
0.889655067739641
1.042259362777105
1.2677679808459106
1.5888911625919993
1.889838068729246
1.863001506133281
1.3471928276815552
0.7396406503051464
0.2413307904661864
0.2611658671393049
0.2932180347434024
0.3224554416923035
0.3551548109415086
0.3951793802419088
0.4447823596542861
0.5059179285957777
0.5841490032277351
0.6828023773872158
0.7923472907428876
0.9170823607783278
1.0905311758523448
1.33155572279114
1.6727351130218924
1.9577838681188728
1.8644486809431624
1.2953188479365942
0.7028863618307944
0.2379925858175778
0.2585312241161381
0.2921948253614119
0.3231683761547444
0.3568649892046195
0.3985766271712562
0.4493215727953996
0.512360469162786
0.5946702927942918
0.6945372306117878
0.806406416809804
0.944559445376542
1.1334310289631064
1.3919605380639737
1.7436831415140372
1.953976428094356
1.7955263212978247
1.2451953182199178
0.6821546441419459
0.2348426591121976
0.2558922803142465
0.2912116183080322
0.3237095962068849
0.359044977786971
0.4025352282277442
0.4541460266623598
0.5197126637858207
0.6050301937347222
0.7063303400126091
0.8220793114931888
0.9706373161224372
1.1644879285558103
1.44506976837485
1.808266715589681
1.9414325034677156
1.7244629980629227
1.2011058502725036
0.6679755452873926
0.2319257202724261
0.2534071009205798
0.2900717315964508
0.3238866431386992
0.3609174034074734
0.4055245301274585
0.4588443076924441
0.5277298510402928
0.6149851276999123
0.7184567833235377
0.838319130640142
0.9936513397482992
1.1967537137611055
1.5075110529440698
1.868138675898708
1.962474030098993
1.7058611664648178
1.1632039751606005
0.6493959141786579
0.2292857279001224
0.2513017372049481
0.2893771024668896
0.3243763508719171
0.3621585072800436
0.4070198747831556
0.4622049591497091
0.5341828681370803
0.6237446873517213
0.7305778975545051
0.854405775538275
1.0153742075971233
1.2259241261625136
1.5593339650287317
1.92384827216282
1.9936017492560785
1.7062713140352956
1.1361318186199607
0.6274741681539849
0.226611676310057
0.2494773502771663
0.2886819026470861
0.324512366801135
0.3632915958372993
0.4087186777961841
0.4644649456735782
0.5386423234969709
0.6308614394479909
0.7427688781530948
0.8724085797140189
1.036940133147106
1.252146508539176
1.5974284789452724
1.9729477869203345
2.026413693051971
1.7111181228522494
1.1201729029700354
0.6149225540323514
0.2244035866540047
0.2482768940327216
0.2881159350591822
0.3240726823181338
0.3642487654152998
0.4107880095478816
0.466709418263321
0.54212498572703
0.6369227067660106
0.7525036600860993
0.8865461413218533
1.0544544364424704
1.2788646039322111
1.6354351369912303
2.0083202221397545
2.0430510468693384
1.7083230652709247
1.1078142002175333
0.6082624604298612
0.2226135719538041
0.2469953471353332
0.2874516033314288
0.3239459524173889
0.3651228008254326
0.412685306726296
0.4688182147444895
0.5452768380074619
0.6429307369605989
0.7595829744890666
0.8966456068350098
1.0696861838813962
1.3030228769087324
1.6626994249152998
2.0345756152002417
2.058322597298536
1.7009366119788591
1.0929778287996863
0.5990527198632208
0.2205765885941612
0.2456623430578663
0.286700663354281
0.3237090666690601
0.3663525234336881
0.415306047507759
0.472087205832779
0.5490122411085318
0.6486589837162143
0.7664686676489925
0.90628459559132
1.0848794629950729
1.324209992793293
1.6873092463069694
2.0568080309759327
2.0656548962972874
1.7013333841328098
1.0894620284095369
0.5906168771393185
0.2189233173870279
0.2447105553886119
0.2856169596473443
0.3229584321929608
0.366557896634162
0.4165472772212495
0.4752203176967564
0.5529271445269092
0.6545179166612796
0.7727062509327476
0.9149749087601788
1.0985373300209018
1.3483111678289852
1.713802470602578
2.065780197650352
2.064426821780866
1.694103281922144
1.0869195611372635
0.586726159481928
0.2176533741581391
0.2436156868644665
0.284473936372297
0.3224863632394741
0.366650204558782
0.416652808305408
0.4763386292513544
0.5551679882399463
0.6592330765093641
0.7776365466421649
0.9216820948715064
1.1092765195814251
1.3729941559562149
1.7444632696163616
2.06964582908188
2.056505705842213
1.6766865048875186
1.0760473830928976
0.5861807073226647
0.216084178068494
0.2420424073705107
0.283611800526526
0.3223576472779879
0.3669086770650953
0.4171137793982392
0.4770733326749742
0.5560250543464008
0.6611990736511836
0.7803276533571027
0.9258501229718666
1.1168779507687618
1.387686979719957
1.7679199070753209
2.075916841001715
2.0436928315040848
1.6661923747260063
1.0706909559601452
0.5867221090502766
0.2142327507357584
0.2402209423726462
0.2829810940342318
0.3223774644840326
0.3667879167203015
0.4175637892544418
0.477967678290933
0.5574238353833448
0.6641048869837
0.7851032542352774
0.9306355253280594
1.125296319282128
1.3994816502845222
1.7798759456708595
2.074226185426081
2.026491496315621
1.6534039666441105
1.0645457454158995
0.5872377313421023
0.2128536408134657
0.2391004888558551
0.2826309280668734
0.322598171987714
0.3667680878017318
0.4179449521985772
0.4791173643000792
0.5594460750277817
0.6679166725455258
0.7925052344494605
0.9376710124245105
1.1334302086093082
1.4094624100051736
1.784309023111358
2.0720181136769766
2.0186459417088627
1.6399671863815908
1.0534615169174126
0.585278342466561
0.2116892521139517
0.2382499564190646
0.2819918126237245
0.3223235264014716
0.3670378870113487
0.4187121588134208
0.4805373973019978
0.5604744363944543
0.6684326956049045
0.7963607807352654
0.9433635173675834
1.137481303757447
1.4109243459658063
1.7905257448963443
2.081838806627317
2.0178192834472504
1.628501955793053
1.043182257005068
0.5793587609420214
0.2105038234018649
0.2371348234941551
0.2808681047506128
0.3212459452985254
0.3672135503239208
0.4195576222826867
0.4812583389060629
0.5609529095796398
0.6699864037559167
0.8007982863827803
0.9485444073084892
1.1432220635715975
1.4152303004256426
1.7976728311959058
2.0773110045223926
2.0014285582412565
1.616453424459106
1.0364925889229342
0.5763056908285774
0.1825060121929237
0.1815863944359169
0.1798065271873486
0.1783739765488899
0.1780704441586233
0.1778112160948313
0.1773046587794028
0.176672286203399
0.1765999684771404
0.1771505791702057
0.1778864736372443
0.1797771703017947
0.1822514062358375
0.1849387281565856
0.1889563960329137
0.193549407796974
0.1988352242752259
0.2052085106906569
0.211732623379082
0.1983740499954316
0.199066638981434
0.1969526239169893
0.1957584986427508
0.1963578653432859
0.1976266105301014
0.1993579499875448
0.2012041391420176
0.2032136880929621
0.2065770533741466
0.2109985824806733
0.217102079851511
0.2248269169932265
0.232838853651868
0.2416629543773511
0.2507767600779229
0.2597387222356537
0.2691315641592919
0.2776748766897918
0.212362503312132
0.2139906662974542
0.2116541093160705
0.2109751440288533
0.2119789720390335
0.2136216606958226
0.2159213530165556
0.2186786164877679
0.2224591211727324
0.2278484088516448
0.2345452732005438
0.2426301957610318
0.252831584548324
0.2634572942695544
0.2736320625693432
0.2831680825058053
0.2909738856115269
0.2978858665066279
0.3043564474825185
0.2232100823389194
0.2230580169809554
0.21887300746213
0.2172471669019962
0.2174177124412265
0.2184663877107192
0.2208539137525162
0.2244006955151216
0.2287607098672514
0.2349493422173458
0.2432701230032352
0.2527573609334422
0.2638463511709076
0.2747885067177901
0.2840705328132712
0.2920178745587395
0.2988206533811158
0.3051962050747459
0.3116941724603502
0.2272603634269642
0.2241975411288675
0.219334612017057
0.2176327888128821
0.2176390694034164
0.2190943856267726
0.2224285882273497
0.2271575192850485
0.2328095492853844
0.2406714795578928
0.2511064199647417
0.2626187084241526
0.2745840045987197
0.2862053794726658
0.296220060228893
0.3051277467203246
0.3134013629384232
0.3209826857536086
0.3286502274064775
0.2265044859524543
0.2223263400349729
0.2182652075743502
0.2174926602986174
0.218411561757379
0.2217609389036993
0.2262419752870638
0.2321248758189732
0.2397628106962245
0.2496189995612896
0.2626131458870762
0.2768171297328031
0.2912183809772906
0.3047639209270329
0.3166251479276169
0.3273337024760034
0.3367209087043764
0.3452927432681974
0.3540269652762349
0.2260826600363409
0.2217299829317415
0.2181084378223916
0.2190021197615737
0.2217335826172077
0.2261258734544453
0.2319252922370039
0.2391992402513681
0.249232676022468
0.2625116744619365
0.2785277828694728
0.2955852670417215
0.3124825010944697
0.3285526603526299
0.3424477706775713
0.3543466276488638
0.3650934223535823
0.3752521172289369
0.3848234065004337
0.2265989449629183
0.222548857270069
0.2206485829226421
0.2226713805667999
0.2257269481480778
0.2301261404295075
0.237513009853731
0.2472728470944412
0.2610910260186215
0.2781813826935674
0.2974019697784059
0.3182091260756925
0.3374592006760397
0.3556949557972073
0.3713302658103874
0.3846141600746638
0.3970487451203869
0.4089211539306738
0.4200274347581447
0.2294737226860842
0.2261511503653546
0.2245708299000155
0.2267790999665604
0.2300312469633812
0.2349308551098919
0.2442646543363206
0.2582772416390273
0.2757025613563624
0.2962492082022523
0.3193411062858268
0.3431478778918647
0.3648538635618099
0.3846164897076589
0.4018113201453139
0.417019154585395
0.4319520135937751
0.4462600741645673
0.4597630186523477
0.2337013458078777
0.2307620685703278
0.2284983162511329
0.2297827504301366
0.2337346453119758
0.2409203222528829
0.2528635726794619
0.2702523245966208
0.2906519593525705
0.3157544454817733
0.3427383308783789
0.3685222047208847
0.3928353862547663
0.4147911321191289
0.4343134795433748
0.4521117514926583
0.4705005216795069
0.4884525509140578
0.5051613755425618
0.2383770447899647
0.2348665109221203
0.231290176074839
0.2323518793466926
0.2369516620991568
0.2469037344088183
0.2622334918624613
0.2826781092958801
0.3070870413468205
0.3356274748933621
0.3658960361709885
0.3950347217217632
0.4223385582383157
0.4470683294376161
0.4697659471869004
0.4916558817563894
0.5133628049620396
0.5348074542392588
0.5553420288689189
0.2431770083849538
0.2380899293826844
0.233042599873707
0.233930646298737
0.2401025155631885
0.2531620587097997
0.2719539903186661
0.2966861042995253
0.3260276458073761
0.3572243470148909
0.3908541360414337
0.4235286987279554
0.4530482935741164
0.4811662579706212
0.5081005933659118
0.5343253743322229
0.5599796935522406
0.5853371580255401
0.6107956496697997
0.2462467182033383
0.2390382931018916
0.2338739824420289
0.2353866246325447
0.2442493873274439
0.260772861570195
0.2827062024466819
0.3108140522187215
0.3447601904626604
0.38034366670034
0.4168485719384215
0.4533203736203896
0.4859518132780025
0.517018707222713
0.548309485354208
0.5791317603003486
0.6104034064536104
0.6423145247907956
0.6753007272286959
0.2476223238741311
0.23815107181272
0.2336412538623587
0.2373853474830964
0.2494303646318641
0.2687793437932927
0.2941309815093189
0.326299386149541
0.3641967688332271
0.4037152887590678
0.4437193360439154
0.4832015685989279
0.519930006749045
0.5543569122822676
0.5902559906496265
0.6283178012278859
0.6662488979490334
0.7059443424641868
0.7478786271066357
0.2475347842491762
0.2365097640541712
0.2330259109229167
0.2398277245934986
0.25480515530654
0.2770153041619568
0.3062725318781671
0.3424091465642773
0.3838097940062873
0.4268010639028574
0.4703245520128435
0.5121053021235389
0.5532926208447922
0.5943138919070229
0.6360235261955615
0.6813808323787353
0.7281752815401648
0.777562239463407
0.8347531853624349
0.2456425236822892
0.2343348169087517
0.2331332451712912
0.2426842683195081
0.260345681160735
0.2855047603265692
0.3191857301874402
0.3584806077928644
0.4018556599943625
0.449136655957188
0.4955289661770706
0.5416340233188419
0.5886899889338048
0.6369783991575478
0.6854974492904587
0.7367324680241009
0.7945206501442911
0.8608563901672726
0.9430655668509684
0.2422983810857515
0.2314375538865416
0.2335027685062354
0.2459292033006186
0.2667559802362347
0.2945698867058864
0.3315077260692303
0.37443451369456
0.4211090917856176
0.4709089466986063
0.5205729552175057
0.5725999424730397
0.6249416231103345
0.679215443826994
0.7363148300562874
0.7972477296466566
0.8682903031121243
0.9589032382390602
1.0671049061073576
0.2378706095825175
0.2281135219606024
0.23384625657101
0.2492433918691324
0.2725064764490759
0.3042939516571402
0.344355415210727
0.3902569986940841
0.4411608065188297
0.4923337130803663
0.546145796860468
0.6043976160222777
0.6627567599494046
0.7244645584760928
0.7899792751980419
0.8641309186311417
0.955432840800647
1.0792602712020476
1.1989065538229235
0.2322567351946061
0.225254474280163
0.2346203606002949
0.2520729280324601
0.278055582459958
0.3134518229138963
0.3567789825848241
0.4056555254744783
0.4587353714888589
0.5127198590802419
0.5716550215098133
0.6349106200465221
0.7015513116129274
0.7714420218171532
0.8456689151741591
0.9382839120734532
1.0586357542618
1.2111867201902342
1.3074314362769917
0.2267005498831171
0.2227712877726921
0.2356622902746004
0.256017398952382
0.2850301072364589
0.3224505389320617
0.3675322526421716
0.4191489870985309
0.4750135580470538
0.5329318742250774
0.5981499027818311
0.6678041928247451
0.7418578172890712
0.8204099184102671
0.9063290397535594
1.0195449867900572
1.176840413368773
1.3411119424392624
1.3827941039682614
0.2222831709571735
0.2209984595041038
0.2372058966105669
0.2606318505943606
0.2916812978507746
0.3308222437920404
0.3787480962632616
0.4322834832879618
0.4900239636390873
0.5519656587421721
0.623379072102627
0.7021028980945947
0.7830194892962559
0.871751355839853
0.97526068654441
1.11397527932993
1.3024799005977006
1.4671154387759318
1.404977268584551
0.218503594331438
0.2195087896238501
0.2389662883226516
0.2647215010340076
0.2976003401740358
0.3381606984661469
0.3892989352560266
0.4453827091245728
0.5049000777320299
0.5708136383744317
0.6475866678709966
0.7335432793073258
0.8223694811029064
0.921993906853928
1.0431531345991822
1.2186511204458723
1.4437899685250732
1.5960283270222768
1.326439916117664
0.2152771917111796
0.2184300017997181
0.2406239938198844
0.2686402933363015
0.3039095961736492
0.3465824250939596
0.3991390043699793
0.4570790792065305
0.5207533774032287
0.5919640222435681
0.6744273984311207
0.7673949367895335
0.865624162127054
0.9765753646821844
1.123364693083252
1.338540423832029
1.5835538964931812
1.632762538819876
1.2133128998355809
0.2123414989171643
0.2178433840601027
0.2428058797709012
0.2725870824141583
0.3104999877013176
0.3555806736564672
0.4082106768240414
0.4667979474245711
0.5340891830446538
0.6120856704844582
0.7003667310772638
0.8002824429005496
0.9087854589229896
1.0340574041133743
1.212467389245481
1.464874515227744
1.6991477760861582
1.601094389127575
1.119894253897292
0.2096305052928739
0.2174252363488851
0.2456338325201041
0.2770602014495022
0.3165698919942777
0.3627064484216769
0.4155377733699739
0.476010826698096
0.5463895780661858
0.6305757537483158
0.726335933932716
0.8328713256501361
0.9506821062524062
1.098209913690084
1.3059677744932845
1.576447187557666
1.7795298953242458
1.583382094289791
1.0224048455992516
0.2073374226513374
0.217246468848253
0.2483848961150173
0.2815687112663217
0.3216370623172411
0.3687337649946685
0.4233150041440193
0.486073368844866
0.5598936715565586
0.6487418569621523
0.750676121579733
0.864520286877092
0.9893161781805212
1.158190354214483
1.3969368108401232
1.6745473657691754
1.7885400204301152
1.4981449889074936
0.9272079842459876
0.2055094430333535
0.217169168914065
0.2504558361337559
0.2856551288035617
0.3263012753631178
0.3745359600354501
0.4314431092117786
0.4956441623819129
0.5724073592993534
0.6642138523925264
0.7726469787517989
0.8955446361544335
1.0293008301468474
1.2126443737323227
1.478596716660849
1.765546092266308
1.8003902189283671
1.4167781573456335
0.8464556626279508
0.2041613132909602
0.2175602367549608
0.2525760760574183
0.2893500726952589
0.3312389904191503
0.380346147312406
0.4380494523795544
0.5033186931953971
0.5828699408842702
0.6787623214852467
0.7941964953850608
0.92349010338921
1.0715996083234391
1.2749500277232544
1.5693637989025913
1.8633218321712413
1.843596766984286
1.3793895524806856
0.793017243931049
0.2028971232848734
0.2186325818419487
0.2555372634778525
0.292271018590011
0.3352909131793855
0.3853056146525416
0.4433878054151326
0.5109232818002601
0.5932199450438495
0.6942828044756855
0.8128905373748203
0.9472751605573152
1.1125406233620094
1.3344968315488062
1.6460580899465234
1.9172072208311504
1.8428620902513364
1.3370830785265235
0.7563205844962443
0.2018843880994157
0.2197947004987702
0.258223375146895
0.2949092330296158
0.3381425111440983
0.3891493978882586
0.4483843236689289
0.5190217392790363
0.602411065441865
0.7063372188662117
0.8309357400028599
0.9752199830835688
1.1552645282566103
1.3858661689658045
1.7081072351547313
1.919782212098528
1.773968290342458
1.2690443789614054
0.7195462917611843
0.2012781159902938
0.2208089552030348
0.2601570945853189
0.2973309488950902
0.3409762908782074
0.3927242794620864
0.4526295109946103
0.5263756381029991
0.6112035601308611
0.7169180584352441
0.8472813351253922
0.9985241278578454
1.1840053342940386
1.4323155111737549
1.7765308809748477
1.925272383343738
1.7057664835873392
1.2017380166249538
0.6858230559779639
0.2010272284471697
0.2218926117989427
0.2622101023083267
0.2999124979163316
0.3441889020211502
0.3964050544563002
0.4570937785665661
0.5327600808961361
0.6211827544949237
0.730845130533244
0.8633589338151682
1.017999216946937
1.2086588447667086
1.482570107568732
1.842561755682374
1.953416856175997
1.689900342481254
1.1602830341670478
0.6569367889048959
0.201456443353876
0.2237612623662056
0.2647736778580225
0.3026267599713613
0.3478545059327793
0.4002353721263402
0.4613992545600012
0.53714744391638
0.6284253140515422
0.7434281665129021
0.8800066937635442
1.039525481793968
1.2398551425593949
1.5348530444613344
1.8981452885953043
1.992664745897668
1.692932820297078
1.1312988942817894
0.6422138063341246
0.2021802995985776
0.225031030867203
0.2665045949463616
0.3049145933681642
0.3510225120616029
0.4034928371702831
0.4653406003034051
0.5411695988869782
0.6344002693820122
0.7514492540063551
0.8895086762507847
1.0564905587110376
1.2652280934246578
1.578168948784698
1.9375496454843693
2.014690397792906
1.6973455918007858
1.1096403602663845
0.6270211095041945
0.2028795706048023
0.2258715555344428
0.2682000885175264
0.307468552592236
0.3538427669934849
0.4067828104886876
0.468551428067122
0.5448947346530179
0.6422279506163514
0.7605804982663127
0.8989270832026917
1.0721290776467736
1.2833598382506273
1.608290532206306
1.968139235597916
2.0343796174721382
1.7008465237009576
1.0910193620352528
0.6100017658799362
0.2034506181284574
0.2273390883456889
0.2705833906538239
0.3101276925675448
0.3562298669649552
0.4096111610347064
0.4712721857663908
0.548622040494533
0.6489539022717985
0.7689401322962611
0.9110323021339106
1.0857041156955327
1.297185582441325
1.6366645755629985
2.0063339387125154
2.055671864537848
1.6917533032503675
1.0773837120555934
0.6032102500788393
0.2038533536311714
0.2285675940060348
0.2727782531318704
0.3123166696707106
0.3573925423061353
0.4115875141443775
0.4738411890221965
0.5521247136348658
0.6539907354129614
0.774431972206244
0.9175776022881704
1.0965280786437035
1.317041807930582
1.666102115927826
2.036138231714878
2.0687333785000988
1.6850679768304608
1.0718612961309162
0.6023100566720494
0.2048309002957364
0.2300218802691808
0.2742972324661089
0.3140240260072571
0.3586506336726648
0.4133302085989854