/*--------------------------------*- C++ -*----------------------------------*\
| =========                 |                                                 |
| \\      /  F ield         | OpenFOAM: The Open Source CFD Toolbox           |
|  \\    /   O peration     | Version:  2112                                  |
|   \\  /    A nd           | Website:  www.openfoam.com                      |
|    \\/     M anipulation  |                                                 |
\*---------------------------------------------------------------------------*/
FoamFile
{
    version     2.0;
    format      ascii;
    arch        "LSB;label=32;scalar=64";
    class       volSymmTensorField;
    location    "0.0072";
    object      tauij_LES;
}
// * * * * * * * * * * * * * * * * * * * * * * * * * * * * * * * * * * * * * // 
 
dimensions      [0 2 -2 0 0 0 0];
 
internalField   nonuniform List<symmTensor> 
13597
(
( 0.2358521337686035 0.0486241851083355 -0.0174371386251128 0.0993451766314205 -0.0012072399625166 0.0678096962311421 )
( 0.2393820812969173 0.0499150431896761 -0.0172240665536778 0.1000582201166265 -0.0013504725105554 0.0729496235032898 )
( 0.2467314533457249 0.0519105906854341 -0.0158364799239075 0.1018811058145604 -0.0019602314629219 0.0849005791004492 )
( 0.2552120124198922 0.0550508569246487 -0.0120416666242132 0.1052497515570636 -0.003444642464069 0.1053375453638782 )
( 0.2626827691757703 0.0580835613444697 -0.007038363615113 0.1083734246964838 -0.0050768302080528 0.1249389771595197 )
( 0.269748040507247 0.0601754706420402 -0.0029306289069313 0.110744137728967 -0.0061298315324096 0.1392806665921536 )
( 0.2754731826470342 0.0624558972631402 0.001591287498331 0.1133356804972441 -0.0069238527411581 0.1508337894909595 )
( 0.2819843870452295 0.0650169923831822 0.007005154158754 0.1149825376268369 -0.0076472719546901 0.1612377886820338 )
( 0.288768302263537 0.0676855396137524 0.0121267554613 0.1164720903725527 -0.0083469725941044 0.1687306692816556 )
( 0.2944175436093268 0.0708940399961736 0.0165463734465676 0.1178597448192538 -0.0085779758622597 0.1729726545430014 )
( 0.3012517612569334 0.0748349516929605 0.0203539252988902 0.1185873378791265 -0.0081132912197809 0.1755265489520777 )
( 0.3076971837821945 0.0792783450798113 0.0234139033939463 0.1193983367238929 -0.0079836288373551 0.1765675743204294 )
( 0.314716829314597 0.0840571960990694 0.0258415544626647 0.1198318262067934 -0.0079154311708066 0.1751422921181283 )
( 0.3222276281283298 0.0895880817052923 0.0267880749211184 0.1201120414904352 -0.007898720791669 0.1718379181516285 )
( 0.3289501116972094 0.0953579692290345 0.0261236469492654 0.1203342602924135 -0.0076359822403105 0.1671477365467471 )
( 0.3370083769619098 0.1013580075852942 0.0248346935081431 0.1207490754037989 -0.007530695479938 0.1620609977302843 )
( 0.3456939963396946 0.1077438808611195 0.0239525685251684 0.1205967013923841 -0.0076779838470145 0.1574353755398072 )
( 0.3546378007107147 0.1135759605655169 0.0225059286269996 0.1189761343799805 -0.0075910631518634 0.1515380199552966 )
( 0.363407615554243 0.1196765090030839 0.0194965098793017 0.1178184874208331 -0.0083322512655255 0.1455160534061509 )
( 0.2454084233108054 0.0564944640362976 -0.0225391007570018 0.0968542038330912 -0.0003823107805914 0.1001653740023087 )
( 0.2512667430244006 0.0588492427297019 -0.0227389671454092 0.0983277864797198 0.0005677936519859 0.112561659500739 )
( 0.2601949574935444 0.0623587963426079 -0.0215113470775875 0.1031600501805561 0.0018674738980016 0.1323385414493748 )
( 0.2701312906215092 0.0675242864358018 -0.0188568614438832 0.1114974271707219 0.0030064540801302 0.1568853886609159 )
( 0.2779824050313005 0.0713237455556377 -0.0155074748780053 0.1175825981781276 0.0043156825259964 0.1733607434308464 )
( 0.2841816172221693 0.07467167868766 -0.0121266414076915 0.1227274596793792 0.0056599428786252 0.1845668689131062 )
( 0.2894853913011732 0.0783707525931191 -0.0083415241071721 0.1279405904100254 0.0071566329559835 0.1913868168709493 )
( 0.2951605341743485 0.0825037132389393 -0.0043273463450967 0.1329814517424991 0.0089633043307909 0.1952859696266561 )
( 0.3012937382796266 0.0868524444636548 -0.0008615654584054 0.1378485941175524 0.010420211915073 0.1959890918908867 )
( 0.3076805650472225 0.0920357118934325 0.0025265943301631 0.1416951338806245 0.0117879062150849 0.1929802496472586 )
( 0.314902400653244 0.0984085114911232 0.0051114463029015 0.1451751418840266 0.0133135275952456 0.1875848550507583 )
( 0.321206875615419 0.1054525477472902 0.0069665732139854 0.1490511219670353 0.014356466341978 0.1814295604037993 )
( 0.3288865671360773 0.1131156241049728 0.0085758167539831 0.1522812159645866 0.014733385509539 0.1743114919139022 )
( 0.3380954474766261 0.1208623350069115 0.0092782870657461 0.1541474761018817 0.0142122605322509 0.1676528968215741 )
( 0.3465589709852143 0.1282174903674821 0.0093504584622337 0.1553364784877324 0.0135100051195048 0.1621347746400293 )
( 0.3542855940989721 0.1358012175453951 0.0092834259076963 0.156488104222701 0.0125668227035059 0.1571687467526294 )
( 0.3611460926508074 0.1427639696009593 0.0098204141057496 0.1570781326358666 0.0112886683902712 0.1532817735361646 )
( 0.3694732882379664 0.148609184885181 0.0109281776062912 0.1560967217533278 0.0099521238547431 0.1502598215206671 )
( 0.377902238648428 0.1537056284308211 0.0114203289273419 0.154293498600838 0.0083726314397675 0.1484707847160191 )
( 0.2510264941218783 0.0677485416704589 -0.0258603788975519 0.0966627247911447 4.966281378165278e-05 0.1375964321248755 )
( 0.2556941004697721 0.0719156190282021 -0.0257919534055388 0.0998824126061132 0.001449656728452 0.1549491780410482 )
( 0.2612765773834635 0.0772541671751794 -0.0240224097224387 0.1089590094488806 0.0046864017451865 0.1757010595792004 )
( 0.2667742581996087 0.0842417036796366 -0.0209635569092604 0.1218700244624171 0.0088491862075048 0.1943742290242441 )
( 0.2709535415535629 0.0900561989472699 -0.0172153329098051 0.1310775879289612 0.0129963644348251 0.2021239950166799 )
( 0.2752325989584209 0.0957004456364981 -0.0131594194731305 0.1400912576031602 0.0167752881523534 0.204341124798242 )
( 0.2789278192608614 0.101908527266551 -0.0088244682452161 0.1488129028890283 0.0203608987332256 0.2018047218136318 )
( 0.2827129950185453 0.1092403107412854 -0.0049062085752367 0.1575112223199692 0.0240476248839565 0.1967202782432362 )
( 0.2881073173216102 0.1170858113811691 -0.0017846459242696 0.1658515986144521 0.0266476148537947 0.1897825976173748 )
( 0.2950853444478873 0.1254138556470662 0.0016224728805219 0.1727361675490607 0.0283608463666482 0.181703386697087 )
( 0.3027077164643372 0.1346138770002525 0.0042015901776206 0.1789576501440427 0.0290875683598835 0.1737779428380985 )
( 0.3111130114399614 0.1441826304995762 0.0060790381440771 0.1849810727384915 0.0289696177308161 0.1674436857645834 )
( 0.321354245281202 0.1536418207771046 0.0076758072422752 0.1900186844409064 0.0276342728284932 0.1626730764024294 )
( 0.3312359757154975 0.1621059829155884 0.0087183861001302 0.1932630361592427 0.0254094594490401 0.159583209433227 )
( 0.3398377029716515 0.1689677927839104 0.010073546488844 0.1949711440623898 0.0237374599706902 0.1587352633307902 )
( 0.3467760232041217 0.1748281452222027 0.0111329931861021 0.196087187316749 0.0220701636319801 0.1590728871230262 )
( 0.3519569503588098 0.1794040173639637 0.0125502254346923 0.1963259677555248 0.0205897121816331 0.1600068364473097 )
( 0.3570028906071609 0.1827564535780381 0.0148023539181054 0.1955781272230448 0.0195962208249186 0.1613921112389459 )
( 0.3614454857672994 0.1850223163031263 0.0173297420470591 0.1935772631328033 0.0187791634795862 0.162906191974843 )
( 0.2475076440950963 0.079342796998055 -0.0251945386609195 0.0986355236593819 -0.0005232071146648 0.1717310704998356 )
( 0.2475768449103928 0.0848839295538074 -0.0231600645344813 0.1048357522303563 0.0020636052761145 0.1882577864021238 )
( 0.2472974198955967 0.0914927971686452 -0.0196267078137323 0.1181334415910771 0.0087420382720218 0.2013022813716865 )
( 0.2474197908366566 0.1006097617367242 -0.0146293277605941 0.1355707050691074 0.0168655222624351 0.2076765183897929 )
( 0.2485231594888855 0.109703563739947 -0.0089164817230431 0.1492092877594796 0.023849859677351 0.2057408847465948 )
( 0.2510202065502441 0.1187687555556125 -0.0038799926371077 0.1622606776486781 0.0293502017011485 0.1995143126349229 )
( 0.2545743226817702 0.1288114114365721 0.0007759681797109 0.1752873556384139 0.0337184891519419 0.1908573113063198 )
( 0.2594529520118424 0.1394486377579396 0.0046235713031069 0.1872485323815929 0.0372034918303102 0.1827341884121331 )
( 0.2665581430869032 0.149794898314126 0.0071559862802739 0.1975274864194172 0.0385654929369278 0.174861353883595 )
( 0.2739086149300496 0.1599773944202004 0.0088843657607388 0.2067328339746051 0.0382867752909583 0.168302217068486 )
( 0.2814009522178908 0.1701048327190068 0.0101564420449565 0.2149466616999641 0.0365636764294953 0.1629383416656152 )
( 0.2912674091825473 0.1791766398925985 0.0111912262403001 0.2206337945418988 0.0341258563179499 0.1597402745941527 )
( 0.3012144640978414 0.1867738497367964 0.0129214608836536 0.2239026467756186 0.0315823962853617 0.1586361384350945 )
( 0.3091548888020072 0.1930378902887985 0.0146775379767033 0.2265204308793812 0.0294213441024107 0.1592196242228694 )
( 0.3147738301450333 0.1974393717987146 0.0167245819679894 0.2278923590528036 0.0285017667091224 0.1611192751131533 )
( 0.3184047366900546 0.2005140016079957 0.0189513224736212 0.228089538959194 0.0282078145727512 0.16313027221626 )
( 0.3209301084404836 0.2023383141473121 0.0214481335517825 0.2270779779773514 0.0284125201432358 0.1647289689118807 )
( 0.322825448124162 0.2035469961798043 0.0242572897999145 0.2257210851550045 0.0292784994017028 0.1664325166294845 )
( 0.3246773594898561 0.2042011808152682 0.027048718548663 0.2235771731801244 0.0305177914863113 0.1683075558831222 )
( 0.2342634263414046 0.0883488708950405 -0.0188317884229096 0.1034172596890802 -0.0001092265398078 0.1963257735216455 )
( 0.2290123415257995 0.0940936827964849 -0.0136069734039917 0.112232992373866 0.0053555085544564 0.2045873594006434 )
( 0.2256650524644005 0.103222105393674 -0.0078837517602192 0.1302368636388328 0.0161021533226658 0.2069094959469558 )
( 0.2243335464615093 0.1154662760058719 -0.0011255738939291 0.1521237134639931 0.027341434409185 0.20455346773409 )
( 0.2250902039701782 0.1275233012637501 0.005314927739805 0.1696364348472988 0.0353655749548322 0.1969230334288229 )
( 0.2276027662041589 0.1394988360432382 0.009928430790368 0.1860299531453932 0.0409570984844701 0.1880230132113263 )
( 0.2317832993129606 0.1514729854843304 0.0133109354539702 0.201560394491463 0.0441227673968218 0.1789710613085402 )
( 0.2380017805496544 0.163547592592116 0.0150147706157701 0.2160490437608816 0.0449428263007618 0.1705313693296697 )
( 0.2451952501121948 0.1742246368572966 0.0159693224057537 0.227121977258327 0.0438547727757898 0.1639792840762598 )
( 0.2521891790709171 0.1835549187460309 0.016071046211711 0.2367096981160862 0.0410505689884431 0.1595565173435637 )
( 0.2603198557144457 0.1924681190030579 0.0159963152621655 0.2450745510146288 0.0378427795557732 0.1565708564011551 )
( 0.2690059209911848 0.1996393225939474 0.0169877216428779 0.2498654928365721 0.0355450234997702 0.155276071902812 )
( 0.275906929814401 0.2050528510388966 0.0190714559432461 0.2527033566107857 0.034575923219256 0.1554173603320102 )
( 0.2809547801716335 0.209271662174542 0.0214414343869363 0.2547246900299814 0.0346594855307747 0.1567462009497594 )
( 0.2839185510231916 0.2121635379561927 0.0239233273650126 0.2557917762397999 0.0357635092434872 0.1579942258290687 )
( 0.2854641135549038 0.2142257448153192 0.0264147290960535 0.2566652640769744 0.0374483775548188 0.1590023232731917 )
( 0.2865998769727688 0.2157074637489965 0.0289441013567671 0.2565952100323073 0.0394977150712438 0.1597536574570256 )
( 0.2880216937052018 0.2172775752252928 0.0317043598858442 0.2559415669317417 0.0420749281491231 0.1607886737751682 )
( 0.2901910185186724 0.2186859615941926 0.034490566615993 0.254519694814712 0.0449232336135079 0.1624125818232927 )
( 0.2143207696920975 0.093527263018929 -0.0074187625170336 0.1091361488159953 0.0024237859188698 0.2073066550792558 )
( 0.2052618914259007 0.0998996742118303 0.0002553567058982 0.1211614816729883 0.0114892407140218 0.2074690140858473 )
( 0.2023317800447903 0.1129049998843396 0.0075672521719584 0.1448613815245413 0.0255956229346502 0.2015500687044208 )
( 0.2037058053140373 0.1284075587889198 0.0142568424605221 0.1708877260680919 0.0376730301323447 0.1947347429226426 )
( 0.2069158202111642 0.1420355900973116 0.0192489747696448 0.1908205453023455 0.044624829707222 0.1856691687072007 )
( 0.2121507506229455 0.1550614085899332 0.021986160296765 0.2093834168303089 0.0482712924171737 0.1769802937439455 )
( 0.2175510553405084 0.1669555670426802 0.0226485655260275 0.2262716294617251 0.0488656574247779 0.1692050754967445 )
( 0.2242450960729462 0.1781474344148386 0.021522994626847 0.2420206879206717 0.0468083424987075 0.1614241703156196 )
( 0.2307516862557562 0.1877076708882056 0.0209827420267006 0.2540439256813395 0.0440540663177235 0.1555361656773477 )
( 0.2365324752615728 0.1956631488982523 0.0204078586101425 0.263788104202967 0.0410167069726805 0.1515312369586655 )
( 0.2426485555802745 0.2025575889485927 0.0200540211806526 0.2714837373619052 0.0387425068167224 0.1489136380755135 )
( 0.247272447188558 0.2079209845490999 0.0210893610589273 0.2768486420886908 0.0381701306537498 0.1475513260578816 )
( 0.250737247264702 0.2124435324767976 0.0232863531386656 0.2807941167137516 0.0395877314466163 0.1468959257982396 )
( 0.2543124296782069 0.2165459519545165 0.0260617180662902 0.2829915939415878 0.0419847517101899 0.1466553723803919 )
( 0.2569687314198323 0.2200738354513335 0.0290794910417771 0.2850434267770509 0.0450424071917996 0.1469039511355093 )
( 0.2589775979797999 0.2230862391200233 0.0318869057928172 0.2870919922191788 0.0482980168672775 0.1474649509318813 )
( 0.2616325023169072 0.2262785666029006 0.0346115404866296 0.2888311309175647 0.0514749647968 0.148547206031354 )
( 0.2657646229523961 0.2300724028221154 0.0374884259903253 0.2897671940499787 0.054677516266969 0.1500963555364086 )
( 0.27181295630229 0.2341346647128615 0.0404194910017258 0.2892638354524827 0.0577928538284478 0.1529978037066202 )
( 0.1907995347892771 0.0958798350012936 0.0076888999447477 0.1159096975395445 0.0074937327642242 0.2086975346702468 )
( 0.183352039073739 0.1038090277006742 0.0167903768181819 0.1317249141968861 0.0195845969717018 0.2038555414295118 )
( 0.1847826141022701 0.1200278331101688 0.0234504157876771 0.1602455539653328 0.0350336978390165 0.1946371896167963 )
( 0.1902056997778219 0.1375808594092865 0.0275453353861547 0.1894754428862426 0.0453642399206995 0.1856026008365598 )
( 0.1966014945761405 0.151497405794023 0.0296570371251841 0.2116850359258661 0.0498115381666785 0.1768177362078043 )
( 0.2042292731883868 0.1641416894951346 0.0298845215362467 0.2316104060758557 0.0508452540192012 0.1686556640776233 )
( 0.2105305538400597 0.1753825922549942 0.0278511041855888 0.2495508438241137 0.0488676670845161 0.1604927974657029 )
( 0.2151784534941065 0.1842611555327609 0.0249134202902132 0.2653558056085152 0.0457506489387355 0.1528670859703747 )
( 0.2185155968470277 0.1913255858779066 0.023350117622427 0.2778165882933852 0.0433442287167717 0.1464792096632621 )
( 0.2217449143744373 0.1979746562448903 0.0223690972479429 0.287765793828251 0.0419425440269531 0.1412299777684698 )
( 0.2245557059160641 0.2039799423553071 0.0220624263458004 0.2965814480215931 0.041839064639592 0.1369067867924776 )
( 0.2270191881630166 0.2096231298533002 0.0235669948413393 0.3040501075800665 0.0437782788361925 0.1347488665130478 )
( 0.2307543347781946 0.2155020441056083 0.0262916712074566 0.3098684026674299 0.0469736565690678 0.1343611915776592 )
( 0.2358066013105038 0.2218440281254382 0.0295594726062712 0.314728547682265 0.0506292675861657 0.1344275634167498 )
( 0.2417480113511794 0.2283157370920334 0.0333269964169331 0.3186134955361392 0.0547995324595717 0.1356689536161466 )
( 0.2476941660235088 0.2342917146929203 0.0366747831990737 0.3222463647334975 0.0585957304390124 0.1375424021520295 )
( 0.254429911108091 0.2406220607520308 0.0398974940459445 0.3258867220663656 0.062001777543802 0.1399783242545246 )
( 0.2634454203121235 0.2480049338933194 0.0432096767103997 0.3285879963552758 0.065077328919896 0.1433805144417457 )
( 0.2750027402910459 0.2561518501766991 0.0465287179938154 0.3295801806220951 0.0677182117716423 0.1479603037716589 )
( 0.1714601180125696 0.0960667836791131 0.0238292918609901 0.1236698462448959 0.0140894694069105 0.2054599355288426 )
( 0.1691006099098929 0.1056910935885685 0.0330142466058933 0.1427639996935281 0.0276878160343272 0.1972477857131868 )
( 0.1765424761903901 0.1244211311342162 0.0371833281907398 0.1748158998851374 0.0425639401533156 0.1878106054459606 )
( 0.1858203705061979 0.142261418605284 0.0376601828887576 0.2065043177332886 0.0501662857796842 0.1789478634857398 )
( 0.1937506323217444 0.1554806527059153 0.0364595095729576 0.2309030397911888 0.0516010205749721 0.1701260396591371 )
( 0.2005941072542841 0.1665937068186781 0.0333715611164811 0.2522682984398608 0.0498871864435647 0.1614146667578012 )
( 0.2044490612554992 0.1754607090768886 0.0295330963035792 0.269728200355708 0.0470735064580037 0.1521218851060155 )
( 0.2058059824312602 0.1823435895556462 0.0259519066060866 0.2857054981442579 0.0449137093396377 0.143529604843733 )
( 0.2060120189333049 0.1881732781222046 0.0235931377704741 0.300781838187629 0.043783018680214 0.1357024618477651 )
( 0.2069836192947574 0.194854515135822 0.0226451602956425 0.312409158084206 0.0443726718728169 0.1289168777772746 )
( 0.2090410651548806 0.2022573323120161 0.0232545529572513 0.3236324534747675 0.046898855261415 0.1240671741024309 )
( 0.2134016946397773 0.2110222991585228 0.0259775307962438 0.3342279817381462 0.0510062206300495 0.1226996357953274 )
( 0.2211057405450113 0.2208346994209249 0.0294044481998101 0.3427806801084712 0.0551887346685189 0.1238224109631298 )
( 0.2300305510250658 0.2306528534434618 0.0330961524621129 0.3506032368544824 0.0593104799164505 0.1260300039671228 )
( 0.2395189075085481 0.2404521023625103 0.0371419826296412 0.3570065308148217 0.0634899668476512 0.1290718236806176 )
( 0.2500417215699426 0.2505804644409343 0.0408495429406098 0.363477584687646 0.0669735949322202 0.1324068369401395 )
( 0.2617277132038796 0.2612942340188796 0.0446118060916445 0.3693856629916018 0.0700374524170543 0.1364279065720344 )
( 0.2756562375568224 0.2730505576529407 0.0484680689543819 0.3738095608044826 0.0725767539099139 0.141604610006972 )
( 0.2919693330077573 0.2855041160490841 0.0523792564603229 0.3760233123293954 0.0743921247791965 0.1474310170558652 )
( 0.158984181179823 0.0939070741874568 0.0392174413776455 0.1314330321527335 0.0206282935511062 0.1997879960945225 )
( 0.163042782035892 0.1050619489622918 0.0467786761735964 0.153581294399634 0.0345079491128463 0.1908477132208206 )
( 0.175849099376491 0.1257193252787598 0.0472345053852946 0.189353472986363 0.0473549925888353 0.1818240065744171 )
( 0.1869976131537983 0.1430036508642179 0.0440117891467829 0.2226692908652523 0.0518735354705846 0.1730403472441573 )
( 0.1941273403469672 0.1547297558937815 0.0395366202922271 0.2483701159063142 0.0510760631271685 0.1633407510384189 )
( 0.1971313370031338 0.1635061267251978 0.0338525665268625 0.2709193354919254 0.0484013104966649 0.1535510983170608 )
( 0.1965699321826971 0.1698715395736849 0.0285912312802536 0.2892888600096808 0.0461539110667003 0.14295719336415 )
( 0.1954863396421332 0.1761194915252385 0.0247142652624043 0.3069040162922267 0.0450635438187143 0.1328019449606256 )
( 0.1942317741786501 0.1825830058822938 0.0224237049772763 0.3247163543938671 0.0456725362160731 0.1243452443700064 )
( 0.1952191681747996 0.1906933942040032 0.0222644561824457 0.3397891766147468 0.04839042549409 0.1178155998684651 )
( 0.200059349959164 0.201663873999731 0.024093457235643 0.3540179714335174 0.0525855832222766 0.1143829787792938 )
( 0.2083112139986632 0.2150021511907781 0.0277159883283163 0.3681561763069912 0.0577308528100622 0.1147312648093223 )
( 0.2204042441730176 0.2300167890867162 0.0321438882904746 0.3805376911912077 0.0626873146381145 0.117275007310958 )
( 0.2334274920870944 0.2444922860004954 0.0364956585194077 0.391771587213173 0.0670058722129294 0.1216749535763741 )
( 0.2458400439719809 0.2578095901405417 0.0407191556624847 0.4014759887620908 0.0707025262818467 0.126658466477899 )
( 0.260245821285898 0.2725832627808383 0.0448865326501345 0.4110722497096873 0.0737194847994616 0.1314581368875983 )
( 0.2762432196975711 0.2880938547187377 0.0490471700059207 0.4193296967849939 0.0760432589668404 0.1366817649333131 )
( 0.2946553745007932 0.3044951246864527 0.0535084279311822 0.4254449762447111 0.0776159007526067 0.1426544625324355 )
( 0.3160031384230543 0.3218811070297419 0.0580544095159494 0.4287224323138324 0.0783583418185688 0.1490978962674816 )
( 0.1554203601892373 0.0910687739657221 0.0529035993727594 0.1399532559966066 0.027093050921811 0.1948588100387231 )
( 0.1661452797130965 0.1041559276443132 0.0571394589947637 0.1657467058709201 0.0402296294683876 0.1859758909994259 )
( 0.1801662656978905 0.1251476659698888 0.052599340650964 0.2048498487681298 0.0496232820520745 0.1764445274903917 )
( 0.1896256015151225 0.1402110613533174 0.0460411846499889 0.2383715379528608 0.0511109969241216 0.1671234688830336 )
( 0.1932386942024579 0.1500979294348994 0.0391655290857765 0.2648635515587523 0.0494360962996879 0.1565856501728062 )
( 0.1922184602406194 0.1569092393353893 0.0325659330927615 0.2878013675224368 0.0473188892133851 0.1452315940910384 )
( 0.1885759956226807 0.1618101355434105 0.0264355168367696 0.309043211734435 0.0457933770237054 0.1327545165043028 )
( 0.1854744689960025 0.1680071202930497 0.0223393896558294 0.3307608129749168 0.0463164486070764 0.121608100092522 )
( 0.1847259433432909 0.1764270538109969 0.0210304142774955 0.3508807368746324 0.0491461894285132 0.1135508049669692 )
( 0.1878646905268584 0.1878829535234199 0.0216561435623893 0.370011418949433 0.0533152279473778 0.10863812954146 )
( 0.1962512420564438 0.2038816432611482 0.0246133385095673 0.3884993258211378 0.0586031735262833 0.1079593575118476 )
( 0.208719151025662 0.2226193997812193 0.0291882259802287 0.4057735838397031 0.0641709523865489 0.1108282284473608 )
( 0.2236178755015294 0.2419883951479004 0.0343766098688739 0.4220105514642133 0.0693691256904658 0.1154439388240531 )
( 0.2396851217841132 0.2612911563154724 0.0394282113608743 0.4368700505189685 0.073511135371747 0.1213438130318947 )
( 0.2564098947987663 0.2801954865092759 0.0442226291257647 0.4505622797086686 0.076481685241007 0.1271244583019076 )
( 0.2745663895658036 0.3000371060888384 0.0488394165068377 0.4638114897114723 0.0786228235271296 0.1327422743068775 )
( 0.2944407244138757 0.3206907261579212 0.0533232038939832 0.4753504795750267 0.079875889348723 0.1384590517345676 )
( 0.3175409527053128 0.3422298342209799 0.0580772831538546 0.4835966214910674 0.0802818697019355 0.1442658576738825 )
( 0.3446534421701768 0.3648418208106225 0.062938324964034 0.4878140859414401 0.0799613683742598 0.1504448883237889 )
( 0.1598711339471773 0.0881963700049423 0.0632479438222037 0.1481976139840526 0.0325416617539603 0.1910005096943245 )
( 0.1730480660758167 0.1025042482214168 0.0628753008965223 0.1768054681161147 0.0436418574272382 0.1819238166570022 )
( 0.1858471001926962 0.1227133342758786 0.054122143412168 0.2189114233153 0.0501030316808485 0.1713555187346268 )
( 0.1910768437922173 0.1348205110949392 0.0448173006554673 0.253025614571353 0.0498865262924223 0.1606199031615517 )
( 0.1900105622178578 0.1425011186734575 0.0363527850038936 0.2804130970244217 0.0478948776821988 0.1485076344782765 )
( 0.1859362408359352 0.1477888623818583 0.0290217891822766 0.3049474798053207 0.0464160622315507 0.1352847978708231 )
( 0.1813041687146254 0.1524655002169936 0.0233414254345896 0.3292742700979127 0.0463711588357909 0.1226035750906265 )
( 0.1779553576546096 0.1597120511162445 0.0200507014980416 0.3546335227307519 0.0490862665152531 0.1126728365404508 )
( 0.1784133586200263 0.1713520742856639 0.0195101185738726 0.3791236847462472 0.0536154569222558 0.1057939378581277 )
( 0.1837114738994608 0.1875409579103157 0.0209893852824124 0.4031709102930478 0.0584919741684238 0.1030151271578858 )
( 0.194712756584078 0.2086916569575649 0.0250330173206686 0.4261925000763803 0.0642866829782377 0.1048582947023148 )
( 0.2111698604647612 0.2335287966048985 0.0308251778573108 0.4477291351209538 0.0700130906126335 0.1098167851657856 )
( 0.2290041596974712 0.2576266366007361 0.0365598208434112 0.4674823779033241 0.0747209128965741 0.1160075267311129 )
( 0.2480399873408185 0.2817361027712425 0.0421759732676207 0.485678412892717 0.0781939474118807 0.1226657027771299 )
( 0.2688760220963995 0.3068297932058121 0.0475222616651613 0.5040381174813094 0.0804961694841606 0.1288918295613892 )
( 0.2906970602562145 0.3321274246740058 0.0523035656949209 0.5218906184175349 0.0815236223298747 0.1346561345731222 )
( 0.3151920969592222 0.3583939199596083 0.0571830586160669 0.5373317475549503 0.0818148240873243 0.1402463152424259 )
( 0.3435835750484718 0.3855452205917309 0.0621881413733362 0.5479311573429159 0.0816181549428948 0.1458054268856611 )
( 0.3775288274724198 0.4142750811558284 0.0668842866246079 0.5535282393462776 0.0806300328189518 0.1517013230947723 )
( 0.1670332259844112 0.0846967397497828 0.0693661272326912 0.1567292845570592 0.0364618120764726 0.1869617265234793 )
( 0.1798128728820316 0.0992916031624866 0.0647040064114747 0.1879982328040176 0.0453395676323095 0.1771242914688574 )
( 0.1895060423777286 0.1180486729594568 0.0529239021623716 0.2320171039618387 0.0495399228115563 0.1659741177225109 )
( 0.1900653439237723 0.1273878481266378 0.0419295916884113 0.2663090183433134 0.0484929036920916 0.1540719796459795 )
( 0.1859083392472784 0.1331267072317522 0.0325841811022156 0.2950303702332225 0.0467213098073091 0.140383564291546 )
( 0.179805035090525 0.1376515727638703 0.0246364199339329 0.3227816278280181 0.0462007855589315 0.1262231503578702 )
( 0.1748243463460651 0.1438878924694616 0.0197463918580619 0.3504898020988705 0.04818951909906 0.1144260886849364 )
( 0.1724224698630594 0.1542877199795849 0.0176191096420758 0.3795937663858532 0.0525595803758246 0.1057454784106565 )
( 0.174057948576528 0.1694825059454417 0.0179876477351319 0.4089499853923637 0.0577333145315073 0.1006080856268148 )
( 0.1813817643109815 0.1902159459730178 0.020840192295939 0.4379802520443952 0.0633094368286402 0.1003218190441235 )
( 0.1946348122036484 0.2162126095011774 0.0258757245157088 0.4658270509983271 0.0693911994897869 0.1044124740182308 )
( 0.2138217172512595 0.2463428076839254 0.0323339447104498 0.4928721186137165 0.0747382595061361 0.1105307056016479 )
( 0.2352056934658505 0.2767140118931266 0.0387450990811595 0.5177164929015595 0.0786109061372354 0.1173729741112914 )
( 0.2580187035459618 0.3068873746488694 0.0450231918903664 0.5403275952495751 0.0813645697598781 0.1244837624249641 )
( 0.2821429840770331 0.3374034834914303 0.0507527305799061 0.5636894215571647 0.0831531054391856 0.1310864645545551 )
( 0.307163310981586 0.3676195284195386 0.0556688738714935 0.5860651569482586 0.0836411809683926 0.1368390181158126 )
( 0.3361981344895114 0.3994274304230155 0.0604056493961773 0.6052220707149895 0.0831898656688283 0.1419550812333529 )
( 0.3719890207880271 0.43401822279341 0.0654008054010065 0.6189994339298851 0.0825216467979578 0.1472208359769898 )
( 0.4158224727561943 0.470874102191651 0.069892199995859 0.6264282801287641 0.0808225209136939 0.1526755287706611 )
( 0.1757279592373259 0.0805302803892573 0.0718368277812244 0.1655474346455888 0.0389372194212813 0.1824548750499926 )
( 0.186484444272821 0.0948630864451505 0.063199238668793 0.1998818615635978 0.046060586411834 0.1719760698988767 )
( 0.1906970228562422 0.1112353104289035 0.0494348069439263 0.2443418988817716 0.0485921247878723 0.1605403641388077 )
( 0.1876386938526494 0.1186225704596604 0.0379434625671175 0.2786529099622599 0.0469836892513265 0.1476122567047589 )
( 0.1811065821639162 0.1235785658847206 0.0280754406100264 0.309973176034006 0.0459900491948036 0.1331029417163155 )
( 0.1741969565169859 0.1288342973574171 0.0203228832287688 0.3411803821573156 0.0467185259946192 0.118729079970141 )
( 0.1692064207618087 0.1371000088955194 0.0161909067219288 0.3727306434735691 0.0501438326531427 0.1075773545692473 )
( 0.1673480460649418 0.1503741255554661 0.0150645992665682 0.4067687443263456 0.0557143103730832 0.1005998913868295 )
( 0.1706894193838498 0.1692035393558091 0.0166029589218428 0.4407470678331815 0.0617302273357508 0.0982434925902472 )
( 0.1799908889144805 0.1944279719455028 0.0207658399595269 0.4736246161643845 0.0677652173369507 0.0999222090744073 )
( 0.1958518249934566 0.2263581350286502 0.027024615606038 0.5074569620605248 0.0737948103071169 0.1053721968017753 )
( 0.2170429963482037 0.2617361293163807 0.0340686939778882 0.540229831863448 0.0786021390932444 0.1124979073493274 )
( 0.2408525927264257 0.2977470476551513 0.0409008388938829 0.5714029735500945 0.0816856273456852 0.1197689230890164 )
( 0.2673583900971238 0.3344732777393418 0.0476112907481327 0.6008921009643746 0.0838920034324835 0.1269550774803819 )
( 0.2941862707510381 0.3698289046724692 0.0534728643765603 0.6297127706012328 0.0852232160378048 0.1331285906771991 )
( 0.3232661993657186 0.4056304581128535 0.0583849886807654 0.6565940551787812 0.0853210628541826 0.1383548454404129 )
( 0.3588825665730823 0.4452924953138715 0.0628490803186878 0.6809828824215538 0.0843565281769471 0.1432243302625202 )
( 0.4035592328030709 0.4887204429780915 0.0675497744123352 0.6995132339950794 0.0830787485577438 0.1482141199635107 )
( 0.4592380276607336 0.5339445383566839 0.0720993213766505 0.7064689177076645 0.0806788674976006 0.1531567416276494 )