/*--------------------------------*- C++ -*----------------------------------*\
| =========                 |                                                 |
| \\      /  F ield         | OpenFOAM: The Open Source CFD Toolbox           |
|  \\    /   O peration     | Version:  2112                                  |
|   \\  /    A nd           | Website:  www.openfoam.com                      |
|    \\/     M anipulation  |                                                 |
\*---------------------------------------------------------------------------*/
FoamFile
{
    version     2.0;
    format      ascii;
    arch        "LSB;label=32;scalar=64";
    class       volScalarField;
    location    "0.0074";
    object      k_LES;
}
// * * * * * * * * * * * * * * * * * * * * * * * * * * * * * * * * * * * * * // 
 
dimensions      [0 2 -2 0 0 0 0];
 
internalField   nonuniform List<scalar> 
13597
(
0.1960218764603724
0.1948152542066367
0.1960785438209471
0.2035554003098244
0.2146936495640211
0.2260884155363542
0.2373010898792435
0.2493539500506825
0.2612469430681525
0.2715614560872282
0.2817017254375139
0.2908924276557915
0.2984482494199672
0.3046977294308661
0.3094860211972142
0.3140565264153925
0.3181412460154489
0.3203732487241142
0.3224876676171339
0.2016492346567364
0.2051578017991662
0.2141816376147121
0.2311755587214141
0.2469000724451306
0.2611587766469043
0.2742127992910639
0.2867598400448854
0.2978504497390109
0.3064984163752411
0.3138054017016572
0.3197482849587479
0.3244815608228031
0.3287578821401358
0.3323430062963677
0.3354486426134668
0.3379754897839029
0.3405743905539583
0.3437949044660369
0.2128171751574382
0.2202973629998943
0.2344038046227122
0.2535434689634576
0.2673653650112543
0.2794788906136833
0.2891447947381806
0.2972374114243474
0.3042849254060519
0.3103630703009294
0.3158841393570061
0.3216436962603853
0.3279203951115907
0.3339583000475863
0.3395956122487559
0.3448477547974496
0.3492489255479715
0.3533283733377687
0.3571847356044252
0.224110276365116
0.2327061430751049
0.2456568595758826
0.2604823949238714
0.2702888318143657
0.2783710772136274
0.2854512973451746
0.2925863403581284
0.299830188724807
0.3071048283257007
0.3144994176392786
0.322538384401315
0.3301338782664749
0.3376725494316419
0.3440472533716768
0.3485204055691092
0.3515943730169614
0.3543006847988895
0.3567637824294614
0.2310648096263498
0.2365615149347582
0.2461665375741819
0.2578996141946845
0.265793303319047
0.2734216023526339
0.2817086610972497
0.2910841039047973
0.3002294864456744
0.3095618274326603
0.3193503858478571
0.3280643091442121
0.3352736954081643
0.3413532965979136
0.3452935437106366
0.3478154061449392
0.3493447003525922
0.3505780920473964
0.3517990448355435
0.231151931663204
0.2330955028606659
0.2412148813049962
0.253383553222785
0.2629786450919597
0.2737602183957333
0.2853230453446903
0.2973992192159447
0.3085541645300186
0.3186725838798588
0.3273442572526908
0.3338657357475774
0.3386351833473888
0.3416309034730442
0.3437224909347806
0.3455355252388134
0.3476776650579204
0.3501025574713349
0.3533119689207147
0.226238233850139
0.2277593473961458
0.2380879618357017
0.2529377575126499
0.2664965452028917
0.2812643725392773
0.2954801947541228
0.3078792753820624
0.3178694740763271
0.325604539475563
0.3313851736192886
0.3359398626413671
0.3399680464394385
0.3436872143608946
0.3476808392928979
0.3521179064036057
0.3573284736979633
0.3637668862858414
0.371404731244987
0.2207640160465944
0.2240015192484195
0.2388766864116813
0.2581885504072252
0.2756408695551237
0.2923761279834155
0.3060342755624308
0.3166594578242269
0.3246505552824207
0.3297661528244628
0.3344006352258282
0.3400371683365921
0.3467088383960142
0.3542253327112968
0.3619930648657413
0.3708738710177083
0.3807336280793023
0.3918949621196582
0.4038096295761447
0.2164085961570474
0.2234968326776879
0.2439320950175164
0.2669843376903644
0.2864689280433373
0.302565350599109
0.3138793768427704
0.3225951571830063
0.329424451198666
0.3347151448755703
0.3412338632749682
0.3503239127108478
0.3613232555896448
0.3738052456035441
0.3862320656279355
0.3998822804974024
0.4143189813920104
0.4296325297270243
0.445560809648756
0.2159655459123484
0.2282352764901164
0.252802902601131
0.2771483706504748
0.2963084717708242
0.3102383001128264
0.3197085600174116
0.3276629468296438
0.3345760882601606
0.3422977156998096
0.3530499235794876
0.3667420633982732
0.3824734238511048
0.3995534688914298
0.4170790225979628
0.4355278728356562
0.4544835594487815
0.4737917073945037
0.4935464105417055
0.2191797067723789
0.234936547223789
0.2624081680729912
0.2859461091600332
0.303229839116461
0.3153768432546904
0.3245014726630961
0.3331916426281721
0.3420717184026556
0.3534786618934309
0.3687898756580015
0.3878531507243987
0.4082514526181288
0.4295856113729462
0.4523633612665521
0.4757615693490553
0.4996084754921414
0.5232205425582871
0.5476085544599734
0.2234806733494213
0.2415539269113481
0.2706894687005428
0.2926112373973714
0.30832722812508
0.3198264431533661
0.329427424326521
0.3396502870538442
0.3514843684640292
0.3672548999018319
0.3874616396074699
0.4118658704809176
0.4376278837635475
0.4640453993876795
0.4920047866446822
0.5200098705958607
0.5483254138417982
0.5777339109300392
0.6085531757917361
0.2280649371076581
0.2483459186503734
0.2770190681408969
0.2975072912480884
0.3125106522914373
0.3241226600939251
0.3347353116154223
0.3473438802570405
0.3632498698790616
0.3830537691176709
0.4087847316847738
0.4384025410022432
0.4696136715879831
0.5021970356505309
0.5347249176205714
0.5673658018006544
0.6022697780556099
0.6393077518193597
0.6761908272479897
0.2326925759224243
0.2533043273972717
0.2813995077682774
0.3007276306109236
0.3155669213782159
0.3280653891656089
0.3405684689562422
0.3556257482650734
0.3756873764378431
0.4007735001499646
0.4315777037680447
0.4670014227890712
0.5038386601209858
0.5414661349604118
0.5796202748570645
0.6197282365270456
0.6631007340023651
0.707336521412535
0.7528113129830598
0.2359186544957632
0.2564019079120563
0.2853720029256337
0.3035789017484995
0.3185275174364159
0.3320038661689202
0.3467664178777061
0.3655553707334714
0.3894813084976208
0.4196852035107625
0.4561949708723992
0.4975935807637613
0.5408523581233281
0.5836672925523363
0.6286553001110902
0.6775268949277496
0.7291801473780382
0.7833547885468695
0.8506718143242901
0.2376992886726833
0.2582610103313703
0.2873906157452075
0.3053772445960035
0.320652731294226
0.3355516347814289
0.35338406960744
0.3761202108495852
0.4045856185471626
0.4398201104520345
0.4829232426982011
0.5310273129417564
0.5799072403805757
0.6288024096634951
0.681277261427327
0.7382558512892745
0.800512393072932
0.8767376990413678
0.9830668338563744
0.238320642475503
0.2591597523965031
0.2884426044287883
0.3064263347294795
0.3225260837439413
0.3399765394511762
0.3609381118419106
0.3865888208032654
0.4197567041510727
0.4608469814082975
0.5083076011260744
0.5627938935010901
0.6187473876694889
0.6752083509255629
0.7362445451120678
0.8038432529403533
0.884695507695223
0.9971601880100334
1.1383462121487815
0.2379325831113069
0.2592761190676995
0.2889794746341355
0.3072798710416098
0.324589624370642
0.3445932243244961
0.3679610894515905
0.3974427347298309
0.4357062413115136
0.4814277509500384
0.5346058526418576
0.5958586564027835
0.6589846702590895
0.7240444443281602
0.7947604369418305
0.8761805543900394
0.9877438236841564
1.1405055278397047
1.272347991079008
0.2370481341584473
0.2588793616178231
0.2888889615111162
0.30810503579806
0.3268823087399151
0.3491562782666498
0.3746795860150214
0.4079554726362815
0.4511294078215399
0.5023510254079524
0.5636511433723785
0.6306579863052595
0.7009356183515737
0.7756900536739786
0.8568971777343903
0.961232520104602
1.1128501981007382
1.2972423708447605
1.3726741703269325
0.235518302435697
0.2576391254011164
0.2883696902508714
0.3088308907377449
0.3293847460448526
0.3540514210153445
0.382680209892307
0.4187541821656942
0.4657659483972824
0.5234043480105285
0.5926198313751307
0.6664671508138039
0.7441445223721624
0.827287143855395
0.9276463671392732
1.0624132158219493
1.254231372494535
1.4480056027317374
1.4374031209726477
0.232748755356507
0.2555754989328359
0.2868513646814583
0.3086174715604032
0.3311727902336736
0.3584090681934078
0.3904831155446194
0.4291154499779697
0.4809257427288595
0.544576538168224
0.6209623794595891
0.7044674084372833
0.7885669055097861
0.8791818374404625
1.0025707983875085
1.1777743655913324
1.4057834294861458
1.580058016196208
1.431780433812089
0.2298827166648414
0.2535321311196606
0.2857465416500748
0.3085191324356198
0.3332029570704305
0.3635337590141749
0.3984346904071334
0.4397594293093714
0.4974062040122297
0.5669561359310998
0.6480080201995316
0.7372121116980421
0.828824521755558
0.936274111129525
1.0833401750055882
1.302219121425826
1.5540971075040837
1.6831987842378826
1.3314827470622077
0.2277073842237409
0.2523048810618251
0.2849694523932193
0.3086926407510412
0.3353725637672201
0.3679135678046969
0.4056282749878912
0.4512276255563406
0.5143660739205654
0.5907864602305791
0.6765463019071872
0.7691123981204528
0.8690021040766674
0.99535829761643
1.1783779091929734
1.4367165472171202
1.6943239465166402
1.713228425608341
1.2189752884112668
0.2254030935808106
0.250988721369023
0.2844404840966207
0.3088369576964936
0.3371755936693987
0.3713411396873073
0.4112309798844115
0.4614722561411174
0.528835859814132
0.6099128489491973
0.7020827737746294
0.8039756687663491
0.9150108926099548
1.059912153796569
1.279662446749832
1.5710649594652293
1.8212552623691345
1.692973469840603
1.117080199547161
0.2232315742712724
0.248846978596217
0.2836185293093077
0.3091968494622724
0.3389233297077625
0.3750888338140339
0.4172973646531993
0.4710272076409796
0.5410694670360866
0.6261368145295104
0.7261239776684515
0.8378316066645476
0.9610925174787762
1.1355094179119314
1.385158015602546
1.6949766807319198
1.9126804896425136
1.6601181991235971
1.0030927658433206
0.2216084736736813
0.2469199468148186
0.2823809379225225
0.3094236941152844
0.3406391346402426
0.3782782899817005
0.4236826263244789
0.4806101139777221
0.5535111985143417
0.6451721575271591
0.7512337063182088
0.8694689341164199
1.006825489794624
1.2082893932553376
1.48640365917827
1.8109424485898449
1.9418645024707364
1.581648623638498
0.9177366648633554
0.220144832885965
0.2451865248991561
0.2811365890593253
0.3093473430652319
0.3419049964907215
0.3811384757978343
0.4298735148558476
0.4905166191980694
0.5671140542153021
0.6642746787670879
0.7747128347442059
0.8982604081594362
1.0508929783843193
1.2727370484047995
1.5823389472635578
1.9121636540215452
1.951166849132257
1.4923631592397832
0.8459956262077029
0.2184080058434006
0.2435047736434652
0.2800935676773814
0.3097718863397263
0.3432171200464722
0.3841221672325119
0.4352092946308638
0.498761516166256
0.5794974578595321
0.682811458807284
0.7987689323602344
0.925797945986508
1.0922543579910609
1.3373621410274057
1.6851698709756404
2.010178054519903
1.9830263170346385
1.4330591298700848
0.7848734873153458
0.2166385209196243
0.2418197721802305
0.2785418629407837
0.3099556881497
0.3442294232176592
0.3864978932492553
0.4394392579136155
0.5053289154532291
0.590520478844253
0.698929290329129
0.8193193940804586
0.9558122871960688
1.1448416372583738
1.4065608179185844
1.7756840511939709
2.0836239922500472
1.9853859766480035
1.3787078094879048
0.7468101789073951
0.2150707830074106
0.239984530307704
0.277393402884155
0.3100776773326085
0.3453266837934532
0.3894726094919207
0.4436514662344646
0.511878922556845
0.601762312028834
0.7115720216132687
0.8346297946961921
0.9858150650965324
1.1916692899593444
1.4720122158157498
1.852364686966403
2.0806421449523893
1.9130359883005288
1.3261888914787443
0.7255333344503261
0.2135996524591695
0.2381782399481057
0.2763441211207973
0.3101209192137725
0.34702517881139
0.3931099307354365
0.448290478684952
0.519601306888076
0.6130305649208684
0.7243597505143896
0.851670433124941
1.0142243061072838
1.2255691827286803
1.529582490368392
1.922283520394236
2.068464647568781
1.838731457859876
1.280116276143746
0.7109699657573545
0.2124390878938598
0.236567680374775
0.2751929807635651
0.310059803339826
0.3485243112820578
0.3956687878382183
0.4529500690669235
0.5280782204961865
0.6238855363580523
0.7376643691703831
0.8694385724382908
1.0393752792707085
1.2606862956064284
1.597350065354454
1.987215196894956
2.0918064610767364
1.8201228302125627
1.2405061060632063
0.6916159252742481
0.211485599581284
0.2352432533835145
0.2745781972782422
0.3104353169399369
0.3494875798181865
0.3968433023728044
0.4561765385559972
0.5347135212833372
0.633279259420425
0.7509178261999707
0.8871587689040825
1.063211526898372
1.2924124665911048
1.6535159160654422
2.047707316745288
2.125708949142359
1.821248069483195
1.2124610554292747
0.6686703628699967
0.2105003705418678
0.2342975905552725
0.2740777891289236
0.3103954238422677
0.3502433369920919
0.3982856227987655
0.4582712853122372
0.5392020449129987
0.6407708583737756
0.7641040257401489
0.9068918867408232
1.086846129331797
1.3209665065251766
1.694825145342934
2.101272559733061
2.161766310425959
1.826959038283108
1.1960607038445463
0.6558775586162474
0.209941661605082
0.2340948333811834
0.2737896471063283
0.3097207355744282
0.3507449864353182
0.4000433766101106
0.4604160694904017
0.5427818959400812
0.6472174193940105
0.7746597057302946
0.9223664093421968
1.1060701509704751
1.3500318631012271
1.7359513365745
2.1397295802204552
2.1803825777657853
1.8246986905908311
1.18344525803819
0.649392833827621
0.2096151286750686
0.2336382531124979
0.2731885750700795
0.3092936704762744
0.3512691720732918
0.4016756969574635
0.4623705087925406
0.5460108121846822
0.6537054412810805
0.7823827622014916
0.9334044356970068
1.122809451400649
1.3764608168752752
1.7656120373801134
2.1682088770933388
2.197406518401016
1.8175197284024067
1.1682087455823889
0.6400316927112668
0.2091286580019074
0.2331190773802274
0.2725573209956034
0.3088594942123964
0.3522307883455876
0.4041138628449398
0.4656107882788231
0.5498967389678718
0.6599174594892636
0.7899673320658775
0.9439413032679324
1.1394516792098397
1.399800484811866
1.792621699780396
2.1925928534096597
2.2059783363567216
1.81868197696689
1.164957243935913
0.6313180082596963
0.2089367568479937
0.2329262717524472
0.2717106090336232
0.3080397303496363
0.3521966393131874
0.4051577867924709
0.4688535717346793
0.5539911865435793
0.666135471634299
0.7968877177983066
0.953636593749888
1.1544863096464877
1.4261048778538488
1.8215564953638288
2.202831943804099
2.205361455153624
1.8115563248272497
1.1626168533824872
0.6274965262801104
0.2090238716515799
0.2325375803497745
0.2707253835280845
0.3075570457434553
0.352133082318519
0.4050456188538663
0.4698994562688184
0.5562681837597678
0.6712462259863496
0.8024340856458501
0.961197685739396
1.1663396826447452
1.452791617569818
1.854895353830005
2.2078019706741583
2.1975335712337505
1.793214806790098
1.1512320473728466
0.6272733023515517
0.2089574707752405
0.2317574760989052
0.2699854907457023
0.3074106040693377
0.3523432442669337
0.4054147519055071
0.4704453283635985
0.557072634298469
0.6735090121696165
0.8055035346194304
0.9657839722744318
1.1746691745999696
1.468784925836952
1.8805935711777872
2.215504680005328
2.1845778467067327
1.782291158464389
1.1457805635642315
0.628106004855499
0.2085306245024859
0.2307282403765125
0.2694528621419951
0.3073314932318115
0.3521429941640261
0.4057978109376795
0.4712446334506578
0.5584199338171602
0.6765620934666642
0.810697096879217
0.9709761008734744
1.1838964262793157
1.4817861468841595
1.893819714038247
2.214388705735629
2.1667481608791497
1.768820121239182
1.1394824959279006
0.6288790557813627
0.2083273925294997
0.2301837878491512
0.2692102685321603
0.3074868463204321
0.3520013564585229
0.4060663488441938
0.4723733362282357
0.5604697742379415
0.6806135368499293
0.8188715721298829
0.978832191110927
1.1928680978166164
1.492665447078512
1.898837541781743
2.212648558652484
2.158801916628114
1.7546400794926742
1.127992951416575
0.6270410776610759
0.2083249702062634
0.2299413613957454
0.2687978435788945
0.3072805483705904
0.3522998655940933
0.4067789475101341
0.473778910273118
0.5615268406579356
0.6812263225070521
0.8232008604624499
0.9852109943790373
1.1973634282347163
1.494326219591286
1.905901513446852
2.2238533757157235
2.158467474051322
1.7427371283080633
1.1173310386143895
0.6209290958454253
0.2082468438550017
0.2295323025871792
0.2679871529314261
0.3063237734961907
0.352588677493169
0.4075523207623082
0.4742999961730946
0.5618463971916698
0.6828960403105971
0.8281213197290256
0.990966611473842
1.2037635347139286
1.499129338024224
1.9138125898101328
2.219388850410449
2.1414021997456545
1.7303768977479088
1.1104067772688546
0.6177750633284079
0.2103833550215023
0.2081450018601923
0.2045342963938684
0.2019146779632343
0.2013065548197215
0.2013222713474796
0.2009538783834414
0.2002846543386608
0.2001435220565497
0.2003160911911235
0.2003016897000583
0.2009716142615064
0.2017017642345556
0.2022482347685752
0.2039108365201857
0.206081965761936
0.2089611613932419
0.2128732000237649
0.2170461060042555
0.2288350674309865
0.2287918248676014
0.2256275048581142
0.2238198538544828
0.2241124201097777
0.2249339559472182
0.2255775541468102
0.2259881805252108
0.2262297399168619
0.2269772817725694
0.2282306800096667
0.2308583010871462
0.2349875272401996
0.239146691748533
0.2443195517681198
0.2504509255000488
0.2570726921856207
0.2646493151052784
0.2719723482968552
0.2418979063802342
0.2426715309661546
0.2392658455530087
0.2375475687947024
0.2373306503653837
0.2372336838530078
0.2370568681910652
0.236775311927518
0.2373029381958227
0.238919035283822
0.2412072527119756
0.2449885755239887
0.2511107964752483
0.257855087733167
0.2648861150091672
0.2721574840858001
0.2783683222419348
0.2843402647965809
0.2904474691173725
0.2504221313850212
0.2493862856039831
0.2439220384056927
0.2405223044651216
0.2385198665444676
0.2370700502960983
0.23634644737274
0.23635542285928
0.2372698006638131
0.239775270969907
0.2438907185334181
0.2493014169238606
0.2566714744145833
0.2643888687600363
0.2715462158943527
0.2782046893706494
0.2842387580754758
0.2903748217503451
0.2972512393464175
0.2523057331105185
0.2482961194988399
0.2420543802692155
0.2382651224706378
0.2357390489314193
0.2345845631850317
0.23499894744564
0.2364294238443483
0.2388080730344366
0.2429641736159286
0.2491436902990184
0.2566758865902577
0.2652985388584631
0.2742294032513753
0.2828398441253556
0.2912708661840328
0.2996227593706946
0.3079533627180384
0.3171465375625485
0.2500147801154574
0.2447821000929852
0.239169454947817
0.2364614480858937
0.23528170301794
0.2363605244295006
0.2381022461714269
0.2407342581265152
0.244636241598378
0.2499778660354169
0.2582268355393941
0.2684426634747569
0.2799493564646111
0.2917968316878365
0.3032899938408775
0.3145869118287192
0.3252014108443232
0.3356750958041517
0.3470790852985934
0.2485731081224201
0.2434665086960889
0.2384712114012948
0.2377320610187627
0.2387334920186964
0.2409300132540213
0.2435331229661613
0.2467741332068031
0.2518839998866811
0.2598440702813858
0.27111497532086
0.2846587848761571
0.2997973787828394
0.3156035736104003
0.3304101662211072
0.3441091783838035
0.3572281961149649
0.3704015081590703
0.3837410702382809
0.2490090881115191
0.2446525489607561
0.2417406064220505
0.2424959548717604
0.2437051692194978
0.2451631150853002
0.2482562126276734
0.2526095477105757
0.2604171881552885
0.2721447894476101
0.2872246074203397
0.3055480467647296
0.3246136320597553
0.3441461862341925
0.3620220248423448
0.3782390098577334
0.3940787882264776
0.4100225585276586
0.4257790870381661
0.2528548667008817
0.2496613394081795
0.24725243568114
0.248020280487742
0.2486915419513836
0.2494256277545961
0.2529538515226683
0.2603851707257499
0.2716049111610895
0.2870870176926064
0.3071280707949721
0.3301573263239046
0.3531152367359179
0.3755899222737858
0.3963497207584513
0.4155532974778679
0.4347923027443935
0.4539447207413009
0.4726239410516015
0.2584473265522468
0.25614748395247
0.2530129544872907
0.2520669835520785
0.252114309129887
0.253601079609761
0.2586408184388552
0.2689594254281698
0.2835034297408325
0.3043419825819396
0.3295623460572756
0.3564381117697424
0.3836647706456751
0.409534271966413
0.4335783129620003
0.4562003486385816
0.4797216489528487
0.5030349814009019
0.5251538228406408
0.2647307765642744
0.262279895169746
0.2573036271883431
0.254885156622617
0.2541491855017017
0.2570013833761768
0.2646898002004048
0.2780677522519306
0.2973556442507526
0.3229818597845715
0.35299394208162
0.3848529420890765
0.4166041126011929
0.4463711114598634
0.4744172298296433
0.5017221027402373
0.5291154597488302
0.5562695190098957
0.5822846700430229
0.2718018974520536
0.2674212360926777
0.2598560418413786
0.255857320318077
0.2552589901112742
0.2602665743376229
0.2710110584258314
0.2890418204170233
0.3142689931583631
0.3441826510846247
0.3794263933127675
0.4162772407918262
0.451216988285871
0.4852179730556549
0.518364595083296
0.5505943075066528
0.5821840389489586
0.6134486327174754
0.6446634665949729
0.2771707889450526
0.2696826296370962
0.2605688096036783
0.2557880922678441
0.256643378247279
0.2645784296117452
0.2787741707097482
0.3009907110814614
0.3317463730341174
0.3675240443177736
0.4075039026831705
0.4495060798199397
0.4883250005696717
0.5258328784394798
0.564016469385926
0.6014786026315252
0.6389593400994116
0.6770872111743119
0.7164641131063701
0.2801587476655466
0.2694866303860844
0.2596054716243596
0.2556669488296948
0.2587962426482291
0.269646769172072
0.2877410248880781
0.31472275029642
0.350603595961031
0.3918074046555128
0.4366794177326838
0.4828837718246033
0.5268170857065485
0.5681707767960428
0.6113141611155504
0.6566590599763747
0.7012447525464451
0.7476425000762492
0.796557532200635
0.2816393499367938
0.2682110655226219
0.2577379165537991
0.2557890324139273
0.2614177969486997
0.2751695146019542
0.2976906969180101
0.3296284012259307
0.3704685117397074
0.416707860577323
0.4661375294953913
0.5152730181606148
0.5644541733955046
0.6133165967643176
0.6625071968638624
0.7154505220123999
0.7696295766806254
0.8264476170825437
0.8917016888947058
0.2808894244978966
0.2657424128849727
0.2558330616511691
0.2559032769607343
0.2642151402817859
0.2811931051940239
0.3087526561429054
0.3449947469050937
0.3892304553321837
0.441062034509277
0.4942681787452697
0.548533508517447
0.6041119803107948
0.6609649721948201
0.7174200114610493
0.7763841197481612
0.842402436484533
0.9175494479990018
1.0099138965529948
0.2777303241518906
0.2615845456746073
0.2537542756695541
0.2564502755753867
0.2679021595737954
0.2881806168066439
0.3198055929046766
0.3607772377986454
0.409559656842552
0.4648795197948893
0.5222669640159531
0.5832713771489989
0.6446029377359356
0.7077381528982044
0.7734193848751669
0.8428660671792612
0.923130631998588
1.0244668816650304
1.145569431400759
0.2730175922425668
0.2567236834271835
0.2515443168917315
0.2570937155972906
0.2713407334234006
0.2959822989542415
0.3316716094342943
0.3769849985952736
0.4311879074516793
0.4885703895597795
0.550910199496328
0.6188064070227864
0.6866831576879263
0.7576741696876159
0.8323109684870813
0.9161257086472508
1.018119121003761
1.1556455010434454
1.2905966375752624
0.2667977382947047
0.2521471207376313
0.2498477879126873
0.2574300067327785
0.2748403787956142
0.3036457362937422
0.3434612574076329
0.3928205280853287
0.4502307550992215
0.5113043906952278
0.5793796928436304
0.6528247352772191
0.7296952415172775
0.8093129523073259
0.8932585727098705
0.9969287752447048
1.1302515276674043
1.2996719338596323
1.4112970288104554
0.26022324306139
0.2478079293010666
0.2485036722285732
0.2588955708319636
0.2797500843006275
0.3113352758456837
0.3537182607643647
0.4068472437294407
0.4679474589264524
0.5338517902732262
0.6090475371824609
0.6892360805363941
0.773840976968371
0.862863972375471
0.9593714483164127
1.0851446902147786
1.2586507989095717
1.441955848427081
1.4960112235448413
0.2546914111707894
0.2442694852397909
0.2477174951782882
0.2611509823976997
0.2845339701418972
0.3184791652835347
0.364643839775455
0.4207164461904447
0.4843243475492744
0.5548392930298942
0.6369439519990984
0.7269205742636968
0.8188409696197968
0.9188763875525262
1.0342524172774097
1.1875020425288116
1.3952733612504322
1.580413954576512
1.522559009270996
0.2497362266827952
0.2408893007216388
0.2470555310708284
0.2632600258692137
0.2889810374084069
0.324991102649613
0.3753813343390013
0.4347430816094257
0.5007710085485082
0.575688051257287
0.6635399063069269
0.7614345209932953
0.8619367650578772
0.9735580365600732
1.1077895647710914
1.3008491612029016
1.5490640829079083
1.721830294159377
1.4387977287388198
0.2452060219055019
0.2379217953685339
0.2465133780847094
0.2652517382080219
0.2939655061435666
0.3328588776424778
0.3856118761239539
0.4474799970877071
0.5183603644791901
0.59915681917195
0.6930666197195499
0.7986150170839879
0.9092298638432892
1.0327737326108626
1.19449829166343
1.4307075079124392
1.7012067985007182
1.7630180323079614
1.316567955868932
0.2408502453905876
0.2353670104851071
0.2466502196137547
0.2674291073683859
0.2994211046670507
0.3414799237434131
0.3950669512546387
0.4581051482113932
0.5330720615917177
0.6214097205062296
0.7215099217570557
0.8345910733772394
0.9562293078638486
1.0949213347957245
1.290762720219728
1.5675244809076605
1.827119434290091
1.72953182627969
1.2151951980242748
0.236596207120511
0.2328555076658923
0.2474574756234407
0.270448842433704
0.3045820242166365
0.3482944074321082
0.4026606188392183
0.4681810855118558
0.5465854264030372
0.6416570498548425
0.7499781306195743
0.8701575709631199
1.0016461777236445
1.1642387540694152
1.3916211546822197
1.6881797337287667
1.9145920785076829
1.7101972623106745
1.1087197861315503
0.2327542886740566
0.2308640293998355
0.2484852530664656
0.2736497841106585
0.3088856657557892
0.3541950621244493
0.4107370865317268
0.4790339158126018
0.5614985583632693
0.6616149147720707
0.7764914762325338
0.904416204177096
1.0433158868827672
1.2288938449945936
1.4898391246044556
1.7943937798144074
1.9245273353037315
1.6177669976386035
1.0048624356429292
0.2292495955519231
0.2290758581199618
0.2489809235933179
0.2763689198752057
0.3127509757145407
0.3599464586660043
0.419280254976741
0.4893159972588999
0.5752200316803383
0.6786008218661578
0.8004068454335487
0.93798907462782
1.0863820295555733
1.2875003175231243
1.5782119978222957
1.892842165548736
1.9371540134939007
1.529459932729076
0.916618099376462
0.2261335576011098
0.2277744378404576
0.2497176029837085
0.2790226463351209
0.3170468010284991
0.365614231004959
0.4262019738756359
0.497539542797999
0.5864962311400922
0.6944646528570123
0.8240117606478654
0.968485850730482
1.1319488748912687
1.3544375940751168
1.6761580465751396
1.99822807389446
1.9834571199554716
1.488514308788362
0.8577665434704032
0.2231734448725845
0.227161851805238
0.2513851147954147
0.2812884255081151
0.3207303007520213
0.3705078386394175
0.4318388554144244
0.5058098055895428
0.5978284547796008
0.7115627439521476
0.844532300834377
0.994335941658998
1.176066741335562
1.4182578432359911
1.7585511949293002
2.056318576550822
1.982449719637864
1.442285998500758
0.8172314575151997
0.220378767708726
0.2266392211180216
0.252888403260927
0.2833015092978963
0.3233405530972776
0.3744843406296689
0.4373407806928975
0.5148390920406231
0.6079971548868809
0.724800722049895
0.86424088470237
1.0244521779103395
1.222170616429813
1.4735585889458327
1.8251716358449808
2.0592111126862784
1.9080315096790383
1.3681872593079818
0.7768437606899455
0.2179292286443372
0.2261329891872149
0.2538906366757503
0.2852635504462706
0.3260819184611226
0.3782572523147511
0.4420513963225054
0.5230452553603433
0.6178003684767255
0.7364193211060371
0.882057469956677
1.0495160811227404
1.2530174443561803
1.523595420367471
1.8985790738380703
2.0647292422631773
1.8339268359395755
1.2947798987844692
0.7398582758364358
0.2160682074699033
0.2258326999948149
0.2549878740523985
0.2874461176508496
0.3292214488707942
0.3820335532101531
0.4468101339241591
0.530062508008704
0.6288537956547464
0.7517121330780961
0.8995272974077914
1.0704624761913315
1.2793282184719892
1.5775856487976203
1.9695509419050412
2.094452166876016
1.816000471509465
1.2492217329680535
0.7079835580153824
0.2148254449695096
0.2261807556012753
0.2564976755535315
0.2895568615017183
0.3326771595639268
0.3859165041881993
0.4514168058479502
0.5349502995214003
0.6368305638313706
0.7653990004881365
0.9174794610760292
1.093591743974513
1.3127205716234975
1.633860957340988
2.029439042657005
2.136278981946702
1.81871722932664
1.2174824950399383
0.6915873616427002
0.2138147873108969
0.2262795757577892
0.2575503856139228
0.2913386774018041
0.3357110409287692
0.3893706638026594
0.4556938756039904
0.53937671590892
0.6433815226463688
0.7739872262900148
0.9276212265294864
1.1118124360470247
1.3398551557178564
1.6803232100704149
2.07138941073741
2.15930285503288
1.822902271783412
1.193723353556754
0.6748241766223665
0.2130301500880157
0.2262553252097646
0.2587610748107112
0.2935420217136989
0.3384660541937011
0.3929892212523316
0.4592830837704379
0.543441114882214
0.6520024912091271
0.7839422216009725
0.9378130086927978
1.1286740723503943
1.359192279836285
1.7123847769038738
2.1037903416608987
2.179894983996961
1.8259660377588007
1.1730600658750825
0.6561108887556816
0.2122343509027777
0.2266250239008566
0.2604293351843236
0.2958742854487872
0.3408505420065185
0.3960642137675113
0.4623332566274275
0.5476723587256951
0.659512109788918
0.7930976905110907
0.9508318280378792
1.143132351979295
1.3738979745514677
1.7427003891464534
2.1445746028058856
2.202465138676004
1.815471270227026
1.157645020555112
0.6485054181458748
0.2112397837209965
0.2267525451622072
0.2619140078022917
0.2977130508985317
0.3420695988355094
0.3981910949596937
0.4651064310826326
0.5516536920518578
0.665169377821832
0.7989617771107818
0.9576482687697756
1.154535714994651
1.3951322430264668
1.7743020061248072
2.176391625760952
2.2161361852605728
1.8075924697324308
1.151006447405929
0.6471807412912393
0.2106557417640999
0.227222550096218
0.2630875962335561
0.2992018719510502
0.3433287326275775
0.400125249319385