/*--------------------------------*- C++ -*----------------------------------*\
| =========                 |                                                 |
| \\      /  F ield         | OpenFOAM: The Open Source CFD Toolbox           |
|  \\    /   O peration     | Version:  2112                                  |
|   \\  /    A nd           | Website:  www.openfoam.com                      |
|    \\/     M anipulation  |                                                 |
\*---------------------------------------------------------------------------*/
FoamFile
{
    version     2.0;
    format      ascii;
    arch        "LSB;label=32;scalar=64";
    class       volSymmTensorField;
    location    "0.0074";
    object      tauij_LES;
}
// * * * * * * * * * * * * * * * * * * * * * * * * * * * * * * * * * * * * * // 
 
dimensions      [0 2 -2 0 0 0 0];
 
internalField   nonuniform List<symmTensor> 
13597
(
( 0.2247930474743716 0.0588387502570258 0.0031686677764578 0.0954838150739036 -0.0012916680844399 0.0717668903724693 )
( 0.2285860256777671 0.0598818070659372 0.0007080072847978 0.0953051171601797 -0.0009547580432477 0.0657393655753264 )
( 0.2368848833948855 0.0612285482918738 -0.0036480960958961 0.0961831642184758 6.615436568277034e-05 0.0590890400285327 )
( 0.2472058183270111 0.0634723613195453 -0.0075182984501062 0.0988732312192461 0.001117593639917 0.0610317510733915 )
( 0.2561404152087859 0.0659362080532265 -0.0088009126728583 0.1022074478869247 0.0016824141907115 0.0710394360323315 )
( 0.2640125733337043 0.0678973060224613 -0.0087728211552047 0.105472298306773 0.0017704239651295 0.0826919594322311 )
( 0.2705500593968772 0.0696283074769855 -0.0077579935729682 0.1089235427587069 0.001699920229606 0.0951285776029027 )
( 0.2777062884111742 0.0712909245481683 -0.0055629628575204 0.111548961566591 0.0011685689558873 0.1094526501235998 )
( 0.2848915799900287 0.0729150796846999 -0.0026890174290098 0.1145230813786201 0.0001208750178372 0.1230792247676562 )
( 0.2907451735068181 0.0745627569468149 0.0005775872209153 0.1173523386345154 -0.000998278246149 0.135025400033123 )
( 0.2973201813183668 0.0764736499963494 0.0041678332236548 0.1194687618394184 -0.0020472916007534 0.1466145077172426 )
( 0.3036544316595075 0.0785848463218484 0.0079001902302059 0.1216187177704241 -0.0034173443365038 0.1565117058816514 )
( 0.3103781838335734 0.0806544105828298 0.0119935025039781 0.1232625739855224 -0.0049090314151782 0.1632557410208386 )
( 0.3169400427560848 0.0834359143053133 0.0154218335226744 0.1247582898305717 -0.0062607009053247 0.1676971262750759 )
( 0.3226837006901242 0.0866504331698816 0.0175733212456201 0.126204802471999 -0.0070047989047537 0.170083539232305 )
( 0.3296117487510022 0.0899917539948904 0.0193960757055099 0.1277079632396757 -0.0075482446190296 0.1707933408401071 )
( 0.3369985077343043 0.0936097764811497 0.0216283925532923 0.1284551068329896 -0.0081422226123246 0.1708288774636036 )
( 0.344886917164508 0.0975031893490792 0.0230019364509672 0.1278230640843783 -0.0080837006389209 0.168036516199342 )
( 0.3528885819233635 0.1023431713889038 0.0224573310451681 0.1277469406422146 -0.0084466897600309 0.1643398126686895 )
( 0.2320825081595127 0.069306595183379 0.0002008587678851 0.0893762017842596 -0.0016959648773056 0.0818397593697006 )
( 0.2382382696183094 0.0717544799809992 -0.0026483211821537 0.0897260733541434 -0.0007363380691964 0.0823512606258795 )
( 0.2490409163693551 0.0750895114778091 -0.0075102095023806 0.0925607136400774 0.0007557940688861 0.0867616452199914 )
( 0.2614142427840794 0.0801073568478658 -0.0118515746741007 0.0991555437394759 0.0021186157913272 0.1017813309192728 )
( 0.2706849550397961 0.0838429337766852 -0.0135237302844888 0.1047651904028267 0.0036151001755768 0.1183499994476384 )
( 0.2779116183937031 0.0871335822424284 -0.0141356452902653 0.1102952567704856 0.0049758515975385 0.1341106781296199 )
( 0.2840507596179735 0.090358528318819 -0.0138000882225014 0.1163677184541366 0.0063922601878313 0.1480071205100177 )
( 0.2900451530038117 0.0934427151056745 -0.0126030624662168 0.1224408190390881 0.0078154864771441 0.1610337080468709 )
( 0.2958851033377814 0.0963465048103581 -0.0111216248478632 0.128833859971456 0.0090301114585564 0.1709819361687844 )
( 0.3016491919864302 0.0997562254434433 -0.0087192396806154 0.1347247614306455 0.0103389142632783 0.1766228793334066 )
( 0.3076868026038448 0.1038118147240063 -0.0063107419438356 0.1405302826991845 0.0119041123540173 0.1793937181002848 )
( 0.312505016294982 0.1080622492023674 -0.0043215608517741 0.1469972687137237 0.013487578581781 0.1799942849087899 )
( 0.3186329826232464 0.1131904164443721 -0.0018851948204739 0.1530990253017057 0.0147669316007624 0.177231113720654 )
( 0.3263510269881385 0.1189035450471045 -2.2655016249404992e-05 0.1581284644955903 0.0154978983008759 0.1730362727965426 )
( 0.3331738177438135 0.1244882369796562 0.000789433757154 0.1625114350481949 0.0159927212597572 0.169000759800727 )
( 0.3397936030425724 0.1306043012605962 0.0012466808927606 0.1667013322523978 0.016245686075892 0.1644023499319632 )
( 0.3460027645219208 0.136457853795354 0.001987890913894 0.1699847511921564 0.0161028768508251 0.1599634638537286 )
( 0.3538689780928737 0.1420006125107677 0.0026560024863149 0.1716815269284362 0.0156642632262638 0.1555982760866063 )
( 0.3626710354389452 0.1475781264633078 0.0022559500476422 0.1725409484157316 0.0148268271903129 0.1523778250773972 )
( 0.2379040391442499 0.0809768447499288 -0.0002695440593603 0.0872782787737274 -0.0015452958545279 0.100452032396899 )
( 0.2435687939420303 0.0851414033244952 -0.0026860264347763 0.088754423592502 -0.0010931705284675 0.1082715084652562 )
( 0.2519608577540693 0.0906298463109941 -0.0075704008769722 0.0948808838936181 0.0001454172589209 0.1219658675977368 )
( 0.2601248791532619 0.0975713670133561 -0.011584961046984 0.1052173406949638 0.0022593800594499 0.1417447180786895 )
( 0.2651630471328621 0.10289474512432 -0.0124210772151472 0.1130826688293972 0.0051167858126674 0.1564850140602491 )
( 0.2693519765405849 0.1079993431433266 -0.0121531237976942 0.1219344129450235 0.0083460802976306 0.167671391741758 )
( 0.2723940731135632 0.1132186909764909 -0.0110224566909142 0.1314038323382126 0.0120470127841039 0.1744916840245855 )
( 0.2748618646557828 0.1190096777695249 -0.0092895806255244 0.1413451505494581 0.0162103942317812 0.1782678076434538 )
( 0.278258411923992 0.1252797726296811 -0.0075896474702919 0.1517496274877482 0.0200343454239048 0.1785618114003635 )
( 0.2830142754939793 0.1319306595318552 -0.0051323938296644 0.1616156997331672 0.0236867524635472 0.1760961653747122 )
( 0.2885296196756758 0.139550513311444 -0.0029246100428329 0.1715804761220568 0.0267480414527616 0.1716581829162795 )
( 0.2946668370682304 0.1477761589385117 -0.0014044314726947 0.1817746248152675 0.0291073660266303 0.1668459306372727 )
( 0.3030094576408635 0.1567071249587025 -0.0003252285348623 0.1912695123389456 0.0302054277589569 0.1615618202433721 )
( 0.3119486822568983 0.1654603549970497 -0.0001206949418737 0.1991970818506834 0.0299016204996497 0.1567708359875906 )
( 0.3200589422869084 0.1727903791015033 -6.664040046912215e-05 0.2051733973742425 0.0292847336598855 0.153958884836361 )
( 0.3273495652953659 0.1796222377770641 -0.0005921718244373 0.2101456420188859 0.0280771917143491 0.1522003022806474 )
( 0.3334231008979795 0.1856863913025088 -0.0009317188519382 0.2138893894632981 0.0266071856213725 0.1511853607346653 )
( 0.3394903761136844 0.1909163516553394 -0.0007101340836713 0.2163958629222002 0.0251126661950521 0.1507705076396528 )
( 0.3456907376589921 0.1953145108358046 -0.00034082802776 0.2177077725538466 0.0234270813686158 0.1509709609960118 )
( 0.2366132802788852 0.0910197403030273 0.0030920463188865 0.0887262991683069 -0.0028202438142535 0.1228809732830396 )
( 0.2385226748422342 0.0959720824241229 0.0017495997104248 0.0922256101155272 -0.0026523272968877 0.1346640011924484 )
( 0.2405847627408274 0.1020389439706677 -0.0021886046030659 0.1011071384353487 1.271468670463609e-05 0.149621817975589 )
( 0.2418041824648425 0.1097804510689031 -0.0042952384478751 0.1146408384510713 0.0048339672933637 0.1645197689318288 )
( 0.2424007696670618 0.1169976363141985 -0.002847297386866 0.1262750581761414 0.0105009641124156 0.1719018357855281 )
( 0.2434479680630987 0.1244995647763434 -0.0008451191910965 0.138897724917444 0.0164225867901769 0.1743964614467119 )
( 0.2449260752773275 0.1331012426212815 0.0016027253741078 0.1527808321106856 0.0226123524182927 0.1731956873023359 )
( 0.2476262655042682 0.14244254215536 0.0040667010684945 0.1668873042385479 0.0287150733725153 0.1706591109734404 )
( 0.252686140628518 0.1522558386700754 0.0056677071827531 0.1805933667126109 0.0333516702578763 0.1663808701084848 )
( 0.2582734164424881 0.1624597838971985 0.0065328560758074 0.1941251053076947 0.0366283821272867 0.1618111349012186 )
( 0.2649234571484909 0.1732231954056401 0.0066547923346614 0.2075827360796378 0.0381442202330346 0.1564926420504286 )
( 0.2741011397328614 0.1836553002564587 0.0059831369744107 0.2190549004653867 0.0379024937655377 0.1519207286043817 )
( 0.2838784267849804 0.1930642418416941 0.0053365770223869 0.2277389645313111 0.0363639302643019 0.1486503652166584 )
( 0.2927904623742074 0.2016798191623482 0.0042236712046232 0.235641943488549 0.0339923681620384 0.1469126930005273 )
( 0.2997651097127009 0.2083325088190756 0.0035632956022542 0.2415832102636693 0.0319844064192621 0.1467461867669834 )
( 0.3047651883770052 0.2133842665988581 0.0033660925293539 0.2453001882169029 0.0301744279525914 0.1469754345443103 )
( 0.3086799732274997 0.2171307054615992 0.0036544999331691 0.2473426240554786 0.0287222601191382 0.1471661487509446 )
( 0.3120677459270331 0.2203109076774496 0.0044712055681908 0.2488421344751369 0.0277397461710342 0.1476914891956086 )
( 0.3154896735538915 0.22299549052826 0.0054836872753083 0.2495645343477795 0.0269021085406141 0.1484733569572516 )
( 0.2259780523739293 0.0970737038993813 0.0099994830171752 0.092836658539411 -0.0041036916552419 0.1433149083393591 )
( 0.2222531622531192 0.101006178660565 0.0102309112546537 0.0978510098084505 -0.0025482395978298 0.1530188578079466 )
( 0.2200167457181062 0.1078119086688947 0.0082056268448382 0.1095726560148115 0.0030604959379379 0.1627436734154458 )
( 0.2182896374255651 0.1169917917612376 0.0087760065182446 0.1266511275802898 0.0113803582821863 0.170858463383514 )
( 0.2175973713259087 0.1262236159651802 0.0119253146708139 0.1422882709977908 0.0196601795461314 0.1717009643143943 )
( 0.2186546297524563 0.1362368201195035 0.0146191568090153 0.1586732839132053 0.0274481427380176 0.1695152910396058 )
( 0.2215853910400564 0.1474717048090094 0.0167093434694643 0.1763813886976837 0.0344716924461615 0.1654505424567593 )
( 0.2270792515907476 0.1597896538774111 0.0174568081290304 0.1946428247719568 0.0396890064009709 0.1604461314468901 )
( 0.2342691288469039 0.1715359716251392 0.017276215672621 0.2104299302912745 0.0424498408873779 0.1557599137531702 )
( 0.2419744360071163 0.1830161572077756 0.0157197805068208 0.2256391889331178 0.0426708569908417 0.1515100299250867 )
( 0.2511223945087326 0.1947317133899316 0.0131606852348559 0.2401017009161519 0.0411073255169575 0.1474766762708295 )
( 0.260637615625453 0.2049651601635511 0.0107830791455512 0.2510947315584871 0.0387832855383034 0.1443962711044839 )
( 0.2686949296389877 0.2133346075059284 0.0090836638934165 0.2595395554281423 0.0363132251201359 0.1423129057491985 )
( 0.2750924530273992 0.2201490606252664 0.0077848007603974 0.2663399562582926 0.0339228443802553 0.141274183910135 )
( 0.2791192346911944 0.224854526307188 0.0074453283281128 0.2709725257651872 0.0324487839258245 0.1404953269648915 )
( 0.2814513754628513 0.2282750718583605 0.0077489877296023 0.2745574166357128 0.031642599935758 0.1396220201913141 )
( 0.283137476100107 0.2309145860606374 0.008582728483251 0.2769213220091482 0.0314543095534065 0.1386306025959292 )
( 0.2848144525446483 0.233328730411692 0.0100896845218101 0.2783155936915377 0.0319460409679193 0.1380261378586067 )
( 0.2869115820197288 0.2355189777452626 0.011965153674066 0.278830129404618 0.0328111908730132 0.1378563782467399 )
( 0.2082281092429496 0.0979870399770941 0.0195263843843907 0.097517616178788 -0.0042242046241602 0.1565581379046703 )
( 0.2000750589892142 0.1009390540592625 0.0211398872437047 0.1041906083488869 -0.0001049127197765 0.1619253383832309 )
( 0.1970726609914672 0.1095340266383572 0.021125328061182 0.1199973443405097 0.0091087443295801 0.1653597572780154 )
( 0.1976232395714867 0.1210357141776474 0.023266333699997 0.1410902516139625 0.0201087899161413 0.1680536152601207 )
( 0.2000426871662643 0.1322099814397072 0.0262492019944316 0.1602089409423471 0.0294069905905892 0.1657056620753079 )
( 0.2051663349300211 0.1443336834570501 0.0280663548634823 0.1801640488687065 0.0368747504573879 0.1621900529927389 )
( 0.2115356448994118 0.1570587010027446 0.0279148793210858 0.2007263867247673 0.0422165029000463 0.1583840590652017 )
( 0.2199134684768549 0.1702832215362316 0.0256058746581593 0.2215275757242477 0.0445342786033969 0.1533573942307867 )
( 0.2287622326772267 0.1824911144545679 0.0231122970183473 0.2392547521094394 0.044638440506463 0.1490913442733712 )
( 0.2369172290042817 0.1939218635822002 0.0194798904522332 0.2553905480005202 0.0427516299743802 0.1450373907549157 )
( 0.2444563018823938 0.2042483808911567 0.0153619479606957 0.2692635606365456 0.0397696777615587 0.1409686519864422 )
( 0.2501365023958109 0.2126131719945298 0.0122673457454015 0.2803270577348082 0.0370512974803113 0.1372679113645357 )
( 0.2542543114011835 0.2194962646112113 0.0103343988401091 0.2892358489885531 0.0353102331327674 0.1337802063050406 )
( 0.257558095660847 0.2249335397068622 0.009679047131506 0.2951177265749042 0.0344701341781647 0.1305859847103371 )
( 0.2596931900304482 0.229014445907754 0.0103084367272402 0.2997542363904553 0.0348484295789477 0.1279975554486577 )
( 0.2611280736809414 0.2322844466584892 0.0115261034865362 0.3039038094154632 0.035961656409686 0.126039167381222 )
( 0.2631101690476979 0.2356748774273301 0.01322945274693 0.3075037938339462 0.0374450263489622 0.1247413672341965 )
( 0.2662163492794005 0.2394177507366633 0.0154694448113705 0.3099234769248999 0.039305710348265 0.124065288738369 )
( 0.2709934272208299 0.2435406031233149 0.0181654956428727 0.3108902481484253 0.0414635612791918 0.1247402624721742 )
( 0.18647845524623 0.0946845131413928 0.030815851691069 0.1026672083157481 -0.0023604627504794 0.1633308041382998 )
( 0.1793875158631375 0.0978464409832117 0.0334609885510694 0.1115284180157876 0.004550829179879 0.1646027609133666 )
( 0.180363668340979 0.1087195573484409 0.0343278450795058 0.1316068168534478 0.0165841067043042 0.1642054384769765 )
( 0.1859132400628585 0.1223941514253025 0.0359278200593966 0.1566908489998764 0.0282025474021994 0.1632714259625649 )
( 0.1934225871562807 0.1350465614737419 0.0372117872813977 0.1792362744794021 0.0365977250142584 0.1603342287701006 )
( 0.2033329997473213 0.1484948417165615 0.0368546165504409 0.2021451561709055 0.0423616947025945 0.1570505891603275 )
( 0.2128782650970253 0.1622827141944138 0.0338671826387583 0.224995206400003 0.044814035212451 0.1530869180112174 )
( 0.2207931890220135 0.1747166927169426 0.0289183100161467 0.2468025977954885 0.0446457679336684 0.1481627639466223 )
( 0.2271562189803945 0.1851699067849712 0.0242500271643747 0.2653834753532284 0.0431632289937978 0.1431992538190311 )
( 0.2322290051497541 0.1951447705095053 0.0192902204619737 0.2813555016394933 0.0408764244546385 0.1376245721618786 )
( 0.2356458667259021 0.2039869555127174 0.0145026057826 0.2959465719331205 0.0384461454765037 0.1311779085795547 )
( 0.2378467140890545 0.2115603109781507 0.0116136870478777 0.3084734923855091 0.037189095519893 0.1255595188081706 )
( 0.2405485901254174 0.2184961055387836 0.010643770400787 0.3183026228221 0.0371797067220584 0.1210848799313598 )
( 0.2440080578676288 0.2251136395359926 0.0110936685945984 0.3260379978421927 0.0380545226237447 0.1173283730119677 )
( 0.2481298173132998 0.2314464347425975 0.0129695506839885 0.3322156597139852 0.0402251563907895 0.1150162015585108 )
( 0.2524381558505418 0.2370996196721468 0.0152339307044902 0.337750118923677 0.0428357130881347 0.1140475380329925 )
( 0.257673212481409 0.2432477929487864 0.0178369670680067 0.3429717065280728 0.0455027777936372 0.1140120283864448 )
( 0.2651309694749139 0.2506399091345248 0.0209120136781367 0.3471888397986876 0.0483010119150876 0.1152139632980812 )
( 0.2750572077334656 0.259099304323128 0.0243797122134695 0.3497873562589003 0.0510511327124377 0.117964898497608 )
( 0.1683630446516771 0.0887474470890197 0.0422381598232327 0.1080224437517435 0.0011781959875447 0.165142543689768 )
( 0.1660811463403864 0.0925511754308688 0.0455658678983377 0.1192065915088192 0.0102350315959376 0.1627153006476334 )
( 0.1738150400202785 0.1060293920368615 0.0459822352063368 0.1430522684707365 0.0236143615854181 0.1608860643323474 )
( 0.1850684169469466 0.1214511489794345 0.0454635308893276 0.1719574422436256 0.0344758490349789 0.1593512416238783 )
( 0.196597321511066 0.1351275599599247 0.0440471878832855 0.1980690035195719 0.040697155848344 0.1566154140796095 )
( 0.2078457804966347 0.1488791861733162 0.0403652658809262 0.2235115045614974 0.0437465166436087 0.1533949709086988 )
( 0.216041984818665 0.1615407811863317 0.0348099910586063 0.2471689208309547 0.0442086437153561 0.1488576454752419 )
( 0.2209256571894106 0.1724527037811288 0.0283221190717594 0.2696002618934243 0.043150643705245 0.1427929965656187 )
( 0.2235097852240782 0.1815764939661669 0.0221028355742385 0.2902682360350483 0.0411902030339697 0.135523089305715 )
( 0.2246941876927966 0.1906027044644374 0.0165500573522835 0.3073118333456457 0.0395674077442492 0.1275262846104834 )
( 0.2258698038506019 0.1996603090382388 0.0124416347284147 0.3236218393653691 0.0390306510929635 0.1193096272356855 )
( 0.2284441062864719 0.2092538131465131 0.0108834455280586 0.338498773664058 0.0398173439666454 0.1131314567226542 )
( 0.2334237520658805 0.2191330498825172 0.0111825440407659 0.3505556170270099 0.0415020300989096 0.1094383076991381 )
( 0.2396139328628021 0.2287970669792878 0.0128600179374203 0.3613130996274976 0.0440636750878634 0.1075236329322939 )
( 0.246619728268912 0.2384586006328769 0.0156085592661733 0.3701439461659702 0.0473897925508141 0.1072224552966004 )
( 0.2550535517679457 0.2484242113496224 0.0185553514758306 0.3786179422966314 0.0506118531617708 0.1080762479708393 )
( 0.264919380434483 0.2593206153464771 0.021978074988089 0.3864158073304411 0.0538144801280483 0.1101320683936805 )
( 0.277279000892241 0.2717624655204781 0.0259054966741994 0.3928029759112962 0.0568972293153868 0.1137079474357788 )
( 0.2921389518762664 0.2852925606127181 0.0302466685361981 0.3969733859312013 0.0594465555947388 0.1185069213448219 )
( 0.1568785139484774 0.0805927197818952 0.0526540537159089 0.1132006112951637 0.005432505555746 0.1627380670704536 )
( 0.1613813020442293 0.0855743720399674 0.0555773993226573 0.1269738504632248 0.0158970249789006 0.1586385128479219 )
( 0.175953417398455 0.1019708327142366 0.0543300221883779 0.1550833948726905 0.0292177249495969 0.1568273777638872 )
( 0.1911303388718806 0.1188726509819566 0.0511195488370883 0.1870615787620525 0.0381389307082201 0.1557767577467955 )
( 0.2037636441964494 0.1330347601749923 0.0464896993627796 0.2160759267946516 0.0421414460503143 0.1530982850955737 )
( 0.2121618476163491 0.1460377704139448 0.0399271321671343 0.2436123987294901 0.0432915135621776 0.1493564548523785 )
( 0.2157420113656193 0.1566796556814849 0.0322469876390584 0.268598799198126 0.0428209534773314 0.1434179431217953 )
( 0.2174171729916459 0.1665315218884837 0.0246074709612311 0.2923253968505729 0.0413463454575474 0.1354477445237937 )
( 0.2172411858432332 0.1757473415497424 0.0179109764016688 0.3152095908506751 0.0401139041919617 0.1263981257034239 )
( 0.2167917690186186 0.1849825443012203 0.0129401028147626 0.3355045256299376 0.0400389285296104 0.1171339951025843 )
( 0.2189261462654333 0.1963095247244909 0.0103371776268952 0.3543567674208306 0.0412843388021026 0.1091848128636723 )
( 0.2241399903081356 0.2097861666250072 0.0102296736377634 0.3723383450653083 0.0438256659317058 0.1041694900482515 )
( 0.2325491257552998 0.2244052443646058 0.0119511477540345 0.388036535026816 0.0470720170308024 0.1020608503971738 )
( 0.2422220686946751 0.2389049727698674 0.0148570878448993 0.4026527994492287 0.0509605412947027 0.1027356230631842 )
( 0.2520936830468774 0.2527266370132002 0.0182828712230339 0.4154320742789753 0.0548373186663462 0.1049383739300181 )
( 0.2644236839109741 0.2679939208181366 0.0219561758598054 0.42748473229231 0.0582203329735715 0.1078561447915205 )
( 0.2785976979612022 0.2843952276465586 0.0261661317461466 0.438178236641854 0.0613417684111958 0.1118620281809644 )
( 0.2954504321133657 0.302231916813362 0.0309715161411812 0.4468339828343342 0.0638551394707253 0.1169806445063486 )
( 0.3156460249967247 0.3215555216592601 0.0362042135324225 0.4524896551369549 0.0655602791081764 0.1229859391638323 )
( 0.1538615887951477 0.0723205689472729 0.0613526714762605 0.1188841454922076 0.0101891112227644 0.1591853575373414 )
( 0.1657325575308508 0.0798906511585983 0.0625064813716469 0.1361129682172717 0.0214203304946302 0.1546250272321101 )
( 0.1837035246560623 0.0985871619514885 0.0580867625257824 0.1687814734759594 0.0332198941935875 0.1531208070702401 )
( 0.1991558321967401 0.115281460060029 0.0522058586604232 0.202632981122775 0.0394479028870308 0.1525079279814345 )
( 0.2091568352424442 0.1292471730318551 0.0451619745392284 0.2335502426547277 0.0419195436834379 0.1499098656444766 )
( 0.2135015938191381 0.1408737424427397 0.0369774879688078 0.2622232858711846 0.0422791436930731 0.1447517205353301 )
( 0.2133727396900371 0.1499097757946056 0.0277056701925281 0.289712169989921 0.0411699202808578 0.1363322103548651 )
( 0.2118063315067227 0.1589508674335169 0.0192304338932359 0.3169486980221424 0.0401370889948669 0.1265708641304225 )
( 0.2104358678903336 0.1688825311204914 0.0132702399341313 0.3418253482142035 0.0404896419577282 0.1168909604157839 )
( 0.2107006081829928 0.180520519803717 0.0094060612879948 0.3657717263098506 0.0419462863533545 0.1081230969067758 )
( 0.2148598107054548 0.1962337277874534 0.0084607337521633 0.3890204258975004 0.0449512069413124 0.1022196105560199 )
( 0.2231275249269555 0.2148949789278544 0.0100026141531562 0.4106455049227685 0.0489948164112309 0.0997110969468221 )
( 0.2341799332550948 0.2342080687941421 0.0130620163157695 0.4306570133267522 0.0534599001952177 0.1001099011203624 )
( 0.2469691758076924 0.2540586986131354 0.0170031006446458 0.4492516643720227 0.0578524989513293 0.1028860976031442 )
( 0.2611115926827309 0.2739481221289527 0.0212800025477612 0.466420921793951 0.0615030231021772 0.1066255307192438 )
( 0.2772090543596683 0.2950390425902504 0.0257895113424654 0.4828612381183821 0.0645229568594234 0.1109854531932619 )
( 0.2954313422661461 0.3174523792248175 0.0307147027289315 0.4975300942751797 0.0669653539487921 0.1160056823562369 )
( 0.3172576022055091 0.3411806649166174 0.0360982086363332 0.5087860900944186 0.0684761295157474 0.12153972248908 )
( 0.3436760467901129 0.3664916503277647 0.0418536356279045 0.5157267871884281 0.0691498441483598 0.1276899871048699 )
( 0.1582695508645936 0.0653741409706554 0.0673468273858626 0.1246547140406357 0.0147068940648909 0.1554351486395283 )
( 0.1737385108964881 0.0755977978323037 0.0657379030812394 0.1450789390638545 0.0255630689148314 0.1510556444872355 )
( 0.1927697835294109 0.0955525245803943 0.0582704073022841 0.1820452896946438 0.0355503546529769 0.1500012629219276 )
( 0.2052743149369579 0.1112032841990512 0.0496439784429338 0.2177875045153159 0.0398017392743975 0.1488303988677924 )
( 0.2109483088180384 0.1239519319264401 0.0405710324584726 0.2503768772103945 0.0410657226567124 0.1451344922044891 )
( 0.2116261051475517 0.1338969112241539 0.0309669758872622 0.2809665514609586 0.0407623661029778 0.1381610299008706 )
( 0.2093887705565006 0.141764049323097 0.0217734302459799 0.3108511241464404 0.0399343094035664 0.1287630506232511 )
( 0.2062527325042599 0.1508950253443972 0.0141228879700865 0.3412107720487206 0.0404493949433003 0.1189197807033634 )
( 0.2045349162899389 0.1632918158393278 0.0089829515833005 0.370364795716017 0.0423135923878962 0.1092437247993551 )
( 0.2059246739915486 0.1791527097640291 0.0063815754088991 0.3989199713776558 0.0448481018957655 0.1021126784176571 )
( 0.2119935018358802 0.1997504824575238 0.0071290251903143 0.4269179942488328 0.0492191723798754 0.0986682552312897 )
( 0.2235034968338514 0.2244523146330362 0.0104220678405904 0.4536130887233858 0.054367030351642 0.0985897158915601 )
( 0.2374397059277483 0.2489641982604991 0.0146686047369139 0.4779034454412425 0.0592460021581176 0.1011597538672668 )
( 0.253346544551971 0.2742787764080667 0.0195773044490389 0.5005216160192084 0.0635107203087441 0.1053030621747129 )
( 0.2716345066081347 0.300917902907019 0.0247390516335938 0.5229678476864427 0.0668362508827374 0.1101243682385269 )
( 0.2916356933237236 0.3283139958023513 0.0298184521367846 0.5447435332342766 0.0691078645540345 0.1151439121401103 )
( 0.3147836187196 0.3571091169998249 0.0352960601639728 0.5640220551023859 0.0706654801442269 0.120411277162297 )
( 0.3424758583395743 0.3871486374170716 0.0410984550951313 0.5779873552250546 0.0715630610742193 0.1259778715519449 )
( 0.3766180967257216 0.4194232444032321 0.046930715022749 0.5865373093166305 0.0715716030513218 0.1320617028775938 )
( 0.1651458226343492 0.0594738420476616 0.0698456814015847 0.1307974118079704 0.0186596928246846 0.1510181122565232 )
( 0.1816630715821984 0.0716817749257671 0.0655459870059611 0.1545514134225371 0.0286399309799294 0.1468933688179608 )
( 0.1996238786477954 0.0921269881480401 0.0558652281231343 0.1949793675744558 0.0367940843228811 0.1467756911788342 )
( 0.2081260003067334 0.1062950784871807 0.0452438593638884 0.2320045997923476 0.0395361970113524 0.1450918746956615 )
( 0.210469230888613 0.1171655230978625 0.0348201557431654 0.2662185834366905 0.0397865427006192 0.1399666419248564 )
( 0.2081807849394213 0.1258618624192824 0.0241214259488374 0.2998313984820999 0.0392693778124863 0.1316407028852111 )
( 0.2041976037043051 0.1344243872954336 0.0155533236566399 0.332555079919954 0.039754399599526 0.122102165028783 )
( 0.2006767993746665 0.1458003613121089 0.0092305542257731 0.3662486221931396 0.0417251228870633 0.1123751525398824 )
( 0.1989484997967273 0.1610485099294459 0.0053550445031135 0.4002088976744632 0.0444485132694292 0.1038113394568678 )
( 0.2015185199394793 0.1811119097242344 0.0046300161454466 0.4341238963890328 0.048319074256486 0.0988673834751516 )
( 0.2096041673285715 0.206628632894891 0.0069183085571184 0.4674801843513708 0.0538247654920607 0.0978389275349975 )
( 0.2238285163170595 0.2368135473664174 0.0113803251479581 0.5002618607075968 0.0593181499127636 0.0996413639371789 )
( 0.2412662263528685 0.268158839499337 0.0167776559719911 0.5305216722621039 0.0639487244637853 0.1034678689121227 )
( 0.2610715298904925 0.3002152123771757 0.0227230284881056 0.5585071466061852 0.067917508875763 0.1085121222786811 )
( 0.2830415254713099 0.3330716428276087 0.0286832208444575 0.5868741662522595 0.0710883639715204 0.1140938815657948 )
( 0.3067727591895915 0.366123846674016 0.0341796427122558 0.6137743346482547 0.0729475488385395 0.119472647353875 )
( 0.3350163447914361 0.4010261653014147 0.0396087184325079 0.6371223162258867 0.0737105234334601 0.1245121666662734 )
( 0.370964791298445 0.4393560192358309 0.0455076808995656 0.6546541642993661 0.0740300140407154 0.1298488662622675 )
( 0.4161722513580643 0.4807276770701643 0.0512533235462356 0.6653472067178264 0.0732373340530006 0.1355868935075818 )
( 0.1731146246549416 0.0544878604505758 0.0692365520568853 0.1372513131073264 0.0218633730940501 0.1457639364530481 )
( 0.1893477905217385 0.0683750663931785 0.0620228074125701 0.1649682029067362 0.0308998289816047 0.1423758438722722 )
( 0.2033171571840971 0.0879104943200757 0.0508556672064589 0.2074537184267983 0.0372409981256795 0.1432672606708981 )
( 0.2083464824812216 0.100531723078297 0.0397427655535304 0.2455468671580818 0.0386678011045183 0.1411212328568735 )
( 0.2077697242089172 0.1103830926268575 0.0284760247217253 0.2821420801030277 0.0386257396269064 0.1351095002709295 )
( 0.2037121684039905 0.1190027867112427 0.0175987803540586 0.3186511024395506 0.0384363039953651 0.1258820493443088 )
( 0.1985541247875236 0.12881976577544 0.0095698934057612 0.354808678223481 0.0398637252255067 0.1161078202198398 )
( 0.1942798631542582 0.142348741529252 0.004541340496386 0.3932593988239598 0.0430485216735794 0.1071484985358629 )
( 0.1933366392176409 0.1603913415899617 0.0025049793649209 0.4321544141602556 0.047142040402291 0.1010086863802268 )
( 0.1974426388766155 0.1847265307869356 0.0035909981932127 0.4705619712799428 0.0521675264468582 0.0981029280787831 )
( 0.2080658784370773 0.2164644059157416 0.0075372667943073 0.5107805899867305 0.0582691499324617 0.0987229949457397 )
( 0.224555469293972 0.2524968779241236 0.0131261226522123 0.55020760637834 0.0638640471301094 0.1020420063321742 )
( 0.2446918002494855 0.2903001185999836 0.0193605198717216 0.5877669569789967 0.0682030781983195 0.106768585947484 )
( 0.268566783040007 0.3295724873225764 0.026098401887994 0.6234574601564035 0.0719436052343455 0.1123698281046509 )
( 0.2938314223033652 0.3678405045785631 0.0323572660498709 0.6577561854925685 0.0746252039836404 0.1178622274452089 )
( 0.3222252168264779 0.4070265077095297 0.0379389725671464 0.6895996051889549 0.0759937524835783 0.1229067815858761 )
( 0.3579055716836389 0.4506459304163255 0.0432591443247563 0.7188125935123991 0.0762532710108084 0.1278213909151812 )
( 0.4038628058398263 0.4988753361892872 0.0490136281420987 0.7417580358273989 0.0759597574620574 0.1329946619714941 )
( 0.4620918343357773 0.549437800497228 0.0548334190091148 0.7520726254018555 0.0742899962430107 0.1382171947583466 )