/*--------------------------------*- C++ -*----------------------------------*\
| =========                 |                                                 |
| \\      /  F ield         | OpenFOAM: The Open Source CFD Toolbox           |
|  \\    /   O peration     | Version:  2112                                  |
|   \\  /    A nd           | Website:  www.openfoam.com                      |
|    \\/     M anipulation  |                                                 |
\*---------------------------------------------------------------------------*/
FoamFile
{
    version     2.0;
    format      ascii;
    arch        "LSB;label=32;scalar=64";
    class       volVectorField;
    location    "0.0002";
    object      U_LES;
}
// * * * * * * * * * * * * * * * * * * * * * * * * * * * * * * * * * * * * * // 
 
dimensions      [0 1 -1 0 0 0 0];
 
internalField   nonuniform List<vector> 
13597
(
( 17.74647474315024 1.885976268540666 0.1131797673533955 )
( 17.752116289535177 1.930106660272732 0.1179832989740289 )
( 17.774330284854923 2.019990222586415 0.1245337190713058 )
( 17.809367382640538 2.136139512119206 0.1309937769961774 )
( 17.839555718752163 2.2367291809569707 0.1368906835729873 )
( 17.859316600376264 2.3204933088276696 0.1428498835473658 )
( 17.8830079056162 2.402837908730078 0.1482827780720209 )
( 17.910223186051415 2.492456239402409 0.1541667551736828 )
( 17.93917583664636 2.583241302696277 0.1586922860401588 )
( 17.97059707016523 2.673497727084932 0.1627137747488017 )
( 18.002675075332267 2.7734292460808843 0.1672885761450759 )
( 18.039586804752386 2.8732259006839547 0.1697386412751347 )
( 18.079826158752685 2.971822831363434 0.1710787279032362 )
( 18.119149789545745 3.075996257405789 0.1724583104746118 )
( 18.15771579681753 3.182104159320472 0.1742325350228572 )
( 18.19885671444973 3.286758483431926 0.1767966028355688 )
( 18.24357635936978 3.3870844794865747 0.1784992044334738 )
( 18.28835285696532 3.486972003372561 0.1785715798614761 )
( 18.33393689973316 3.590659931034764 0.1773044077783719 )
( 17.600997204885893 1.9373332248861843 0.1488437784659924 )
( 17.586706935040393 1.9953593230173836 0.1591488925254794 )
( 17.587430272586523 2.113258796449568 0.1744583216191898 )
( 17.593764908922783 2.247903324102813 0.1907297028051105 )
( 17.593943625746856 2.354395192270783 0.2049220109188436 )
( 17.590904187138865 2.454231720720299 0.2184809800992579 )
( 17.593247109496158 2.55442607902025 0.2302028700434239 )
( 17.59676631222074 2.6601635401908905 0.2420954711791666 )
( 17.602956058892044 2.7683862730767594 0.2518968187743016 )
( 17.610330938314863 2.8765478628943506 0.2597901800225926 )
( 17.61710286104415 2.995828063368028 0.2671532693355247 )
( 17.623184420306192 3.1220219132548848 0.2722453098684111 )
( 17.62888228122915 3.248685578677692 0.2753166543454934 )
( 17.637068687555566 3.378834365030796 0.2760120637779597 )
( 17.64505358598048 3.5063822379502643 0.2749214824349179 )
( 17.65555119604562 3.626311762092442 0.2729901224807418 )
( 17.667224413636397 3.736405235245629 0.2699468813781391 )
( 17.67719573784316 3.848693973827619 0.2651321188681473 )
( 17.692033948747522 3.960115374480752 0.2584855858570891 )
( 17.442413360934342 1.980717051963217 0.1798791254478297 )
( 17.402247130140694 2.050290613926656 0.1962025435945083 )
( 17.37666225045705 2.186747540675785 0.2189532967426818 )
( 17.352230307716727 2.3343696922990804 0.2420850482856065 )
( 17.32213444919839 2.448029784420587 0.2598143880495556 )
( 17.29808716926011 2.5606835952881206 0.274800323346855 )
( 17.279284240245538 2.6768248716745986 0.2864519015315431 )
( 17.253931916232712 2.795389346664742 0.2960935125022386 )
( 17.231834808291612 2.919148118609255 0.3027734889448583 )
( 17.213668177846298 3.052048804902638 0.3065979929202462 )
( 17.192654864482765 3.191143058016623 0.3079174647034962 )
( 17.170323681448533 3.3393145231330577 0.3059383067714933 )
( 17.148807786290096 3.491109636417633 0.3005417458460553 )
( 17.130141902860206 3.6361220678227615 0.2921722141907469 )
( 17.114064598501592 3.768897618198673 0.2825661907615351 )
( 17.100753039296823 3.886353683539253 0.2723521610526784 )
( 17.085323013944073 3.99187878855814 0.2613501679293466 )
( 17.068599425431405 4.098157853649123 0.2488727527684361 )
( 17.060731910567807 4.207597047482707 0.2355089005777029 )
( 17.269388422133648 2.015436902443928 0.2070765079043636 )
( 17.2048635212049 2.094186043421588 0.2275181081510142 )
( 17.15647387862171 2.239923506529065 0.2528937155015105 )
( 17.10507285792274 2.3957980990814614 0.2759649386546143 )
( 17.04648032103175 2.5186705283027955 0.2911226638005702 )
( 16.995980096903686 2.639715018699483 0.300984044068183 )
( 16.946138334164257 2.768938937448494 0.3066942571601902 )
( 16.892259627607007 2.901570141554219 0.3085393092372605 )
( 16.8460407030582 3.039096442024418 0.3066423690659625 )
( 16.803948114790888 3.185419429064018 0.3010519356664447 )
( 16.757080688112264 3.340051635743018 0.2912059987689326 )
( 16.71487239948111 3.5003407274505536 0.2779729811525644 )
( 16.676821809819344 3.6596036324925314 0.2625567622411484 )
( 16.63724945448378 3.811671441968308 0.2452930493405867 )
( 16.59822148888001 3.942293931008024 0.2284647190530145 )
( 16.561743892251936 4.053708973060037 0.2128981338803378 )
( 16.52559982696558 4.154963683966908 0.1979563173967317 )
( 16.48693797593489 4.257456242839536 0.1824187209879925 )
( 16.452635737204947 4.370226529967285 0.1657525999704864 )
( 17.095073122719434 2.0391838966722085 0.229775394848126 )
( 17.014981639114307 2.1267821846846267 0.2497321117752757 )
( 16.943388050505266 2.282021574048628 0.2732131121004517 )
( 16.864077214905638 2.4414539647953184 0.2898010127084341 )
( 16.782236928002504 2.569521253184757 0.2965645013141063 )
( 16.707430612327116 2.697091334625892 0.2982180336667246 )
( 16.63017925771227 2.8350868452662548 0.2948301534568784 )
( 16.553715157105113 2.976548619482875 0.2869381230570819 )
( 16.48515389601002 3.1198510864744056 0.2754861232969285 )
( 16.418221431432926 3.272197338158756 0.260675975776221 )
( 16.348848394780934 3.4383037785245727 0.2424196543868464 )
( 16.283076183876695 3.6077867973149873 0.2226871223155423 )
( 16.21957354771854 3.771622818338765 0.2020253406705351 )
( 16.154411878744334 3.924664264403406 0.1809102936734266 )
( 16.08836355812984 4.0499556078218175 0.1615515897307277 )
( 16.024113892194435 4.161691881941675 0.1439316320109483 )
( 15.963222861329372 4.268382960242599 0.1278946385495522 )
( 15.902699410728609 4.375250496349881 0.1122707474207896 )
( 15.842997162129096 4.494565883800186 0.096013608978234 )
( 16.928432409095848 2.04987884315356 0.2446973710261161 )
( 16.833861264645975 2.146053004929993 0.2611982296171485 )
( 16.736718464905874 2.312794337282729 0.2782630552175619 )
( 16.635397268065116 2.473559790591244 0.285583948835081 )
( 16.536319338064754 2.604299404987466 0.2829468717396444 )
( 16.442716183690212 2.737545211205173 0.2757970141222967 )
( 16.349170578942175 2.876659628423352 0.2638851424989987 )
( 16.252510140562645 3.01979267869828 0.2479894044503446 )
( 16.15464857592203 3.168256988863778 0.2292541120165303 )
( 16.059262683638607 3.332543091702823 0.2081931980833364 )
( 15.967702917091705 3.504231994299676 0.1865092831338664 )
( 15.874035543317015 3.6750680797940616 0.1643121867261016 )
( 15.783038537452462 3.842072145455365 0.1418354831876227 )
( 15.694549410889646 3.9932504514555816 0.1208768945782668 )
( 15.60436546411858 4.118791076063441 0.1020704847937262 )
( 15.520496763791911 4.229198671942232 0.0858706533991926 )
( 15.438664852341637 4.335904485285927 0.0712618260454253 )
( 15.356433392799488 4.44411010015517 0.0572188129108698 )
( 15.275440294923367 4.566417212461168 0.043718672359263 )
( 16.764876077411113 2.0522820868977334 0.2515655059671045 )
( 16.65663998670298 2.157537698249962 0.262691307237915 )
( 16.54173278795409 2.3309877703192368 0.2704430451997142 )
( 16.424133239341092 2.489397094159049 0.2672831813971219 )
( 16.310508279323162 2.620075782101861 0.2565576150142031 )
( 16.19714744677422 2.754546591911143 0.2416070960228796 )
( 16.08411843613437 2.8956629502347546 0.2236620167911141 )
( 15.96796088684494 3.042045622265017 0.2028989582553864 )
( 15.844736572272524 3.193005216261817 0.1801836185858724 )
( 15.728413293939903 3.3603398016866297 0.1577328010386763 )
( 15.612020356213948 3.5359696743735847 0.1348663762798292 )
( 15.490226144096294 3.711231953046701 0.1118994993114673 )
( 15.375542616979018 3.87591066159962 0.0911092757291604 )
( 15.264706731757286 4.0227180436618255 0.072194214544158 )
( 15.15320005511985 4.151642866718194 0.0551525488248548 )
( 15.04772151507122 4.259979188933897 0.0413022918766447 )
( 14.94624338116731 4.364244062675093 0.0290986434489571 )
( 14.843543023335425 4.476820471868553 0.0173412788389446 )
( 14.742484962676771 4.602496977291697 0.0062675294520675 )
( 16.614639983874756 2.047809575610464 0.2509669800962616 )
( 16.494115906413406 2.156670660985062 0.2544472848141852 )
( 16.364659121661635 2.3315308677797746 0.2523622927923427 )
( 16.231466023599044 2.488132634345588 0.2403300962463371 )
( 16.101304998642785 2.6192958388153733 0.2229449677067362 )
( 15.969765528922451 2.7556551847685378 0.2034427509357917 )
( 15.834674073934716 2.9002710889814685 0.1819343843253336 )
( 15.699254952213796 3.045509835797508 0.158821918467781 )
( 15.5544992620823 3.196170660700452 0.1349138020899076 )
( 15.415411222138731 3.367315516310919 0.1126851392262998 )
( 15.272418663475756 3.5462186273985146 0.0903659493353774 )
( 15.127953418774586 3.724716001022236 0.0688519828852907 )
( 14.991008311343602 3.8888894979129054 0.0501960203028927 )
( 14.854637249448476 4.029253048095518 0.0333152001938951 )
( 14.727202993265344 4.151260128890187 0.0193699507512402 )
( 14.60251366094908 4.259897935086144 0.0075001253916799 )
( 14.481085542057787 4.3682955486189226 -0.0031226041354548 )
( 14.360536308339924 4.487281846452118 -0.0125901920983604 )
( 14.241879861229364 4.618323002305576 -0.0213088753407191 )
( 16.47720358530888 2.031616131606309 0.2419141816679346 )
( 16.34439692219139 2.1390767982172663 0.2367172034044125 )
( 16.19969622519565 2.3147203458911814 0.2264232836571528 )
( 16.053285522956514 2.470305977870789 0.2093045899217298 )
( 15.904808033755575 2.6050241187475867 0.187927654056847 )
( 15.758211039965346 2.740177280403709 0.165806807450758 )
( 15.606486182871247 2.881408991044879 0.1425420382612353 )
( 15.452595532584306 3.0308251783159763 0.1199548126242874 )
( 15.290771619101577 3.1864248709077736 0.0976520346402189 )
( 15.119807214853212 3.3570078551585825 0.0744131016860634 )
( 14.951212970695028 3.537154906696964 0.0534883128174697 )
( 14.789140654728277 3.7139838816524553 0.034994786861988 )
( 14.626384248484507 3.8775648492854513 0.0175454470752142 )
( 14.469053155437956 4.017197308981106 0.0025996424114964 )
( 14.326988984998112 4.134975620830379 -0.0087982017098174 )
( 14.18419652682858 4.246419711186287 -0.0190546362094073 )
( 14.043241762617772 4.358106564195155 -0.0278808327059702 )
( 13.904160417117868 4.4803016997982725 -0.0349156472487106 )
( 13.76570921634303 4.6174031678424585 -0.0405784804695432 )
( 16.347857700387152 2.011372894138784 0.2274333332606612 )
( 16.205082054953817 2.12359040068257 0.2148322482567339 )
( 16.047008764069115 2.296850651730576 0.1983865551826775 )
( 15.886755436889011 2.445058890339706 0.1778097716896789 )
( 15.724980115093231 2.5811630840418065 0.1549063685854286 )
( 15.563278319966694 2.711894335091649 0.1315532030105377 )
( 15.390956032346738 2.846684973391336 0.1075682625797821 )
( 15.211312386838909 2.9972888952354824 0.0846253862094394 )
( 15.03142326989282 3.153836396003243 0.0638264486084838 )
( 14.840363523076949 3.324180658670747 0.0428799698109561 )
( 14.651236635637494 3.5092807842909792 0.0236089564260722 )
( 14.469945084687572 3.688948164533149 0.0068605382427381 )
( 14.28813098049064 3.848740481382873 -0.0084874970633437 )
( 14.116187924682714 3.9885139681342814 -0.0208304202948947 )
( 13.953924597816943 4.107756879484384 -0.0305538104778332 )
( 13.79083509863124 4.219219174670509 -0.038731657539959 )
( 13.627822344580904 4.3323126583872735 -0.0450578863368692 )
( 13.46897630515324 4.457129950796804 -0.0500881944697042 )
( 13.3134263998793 4.601581029076218 -0.054276825419387 )
( 16.234551136220855 1.9885661406087607 0.2099428353940046 )
( 16.084457241700576 2.1045185709150727 0.1924767578685021 )
( 15.906624104223004 2.2738051268780564 0.1709533887080414 )
( 15.734605032490432 2.4124573135567164 0.1479082648470886 )
( 15.560508677976506 2.5437163169564365 0.1244035984637315 )
( 15.37843994244148 2.672141411877728 0.100470867071739 )
( 15.186291509872976 2.80169579086021 0.0763796444175477 )
( 14.989082027706724 2.9462400446366543 0.0539356924871699 )
( 14.788702502745272 3.1064559863399506 0.0347092594983304 )
( 14.582632498391463 3.279359460753575 0.0168840118764347 )
( 14.374433952567138 3.464729530207661 -0.0004954143119492 )
( 14.16785941294902 3.650593181111094 -0.0159171720221483 )
( 13.973328060166056 3.8085288217468194 -0.0284818457426249 )
( 13.787365160832849 3.948226930271247 -0.0383046061520085 )
( 13.601150203789445 4.070744044819998 -0.0464044860070987 )
( 13.414944701279936 4.182153662716128 -0.0529264739052677 )
( 13.23204654126531 4.298122891326968 -0.0582115042956845 )
( 13.058391696032864 4.428345849881932 -0.0625104144328401 )
( 12.886848066917992 4.582102825609212 -0.065734828611576 )
( 16.130644754076567 1.958934726278745 0.1889739045291993 )
( 15.968370268472018 2.0762713901911884 0.167972314389483 )
( 15.7736620820016 2.243281336995645 0.1438755157199942 )
( 15.590938534578786 2.372683315328868 0.119893295652603 )
( 15.401544887564231 2.4953639182397733 0.0958325721643291 )
( 15.200787586010929 2.621773271330597 0.0717615850565233 )
( 14.997602772649689 2.754754611772236 0.0494619863688042 )
( 14.784739791517302 2.8993862033000166 0.0292644684698484 )
( 14.564891410532685 3.059838832994372 0.011711704897048 )
( 14.340818964758856 3.231798969201777 -0.0052407303970152 )
( 14.114288624385878 3.4143341645202243 -0.020433532863714 )
( 13.88762649188012 3.59663644511718 -0.0333870526226192 )
( 13.672872209327522 3.7588611905896103 -0.0442335756759596 )
( 13.466463727621203 3.905596636975489 -0.0524975080458779 )
( 13.258265442456665 4.029431582207101 -0.0593419883874288 )
( 13.055521536051012 4.1392184548947935 -0.0649396056564443 )
( 12.86077999251408 4.258325030959514 -0.0695719423441154 )
( 12.673524900588456 4.400195085101399 -0.0727653160230666 )
( 12.486794551025348 4.566082834024208 -0.0737481009379964 )
( 16.031138771508882 1.9196791963208693 0.1665474732746097 )
( 15.85820628378997 2.0372735959259987 0.1429313015069234 )
( 15.65411933612487 2.20196751678753 0.1181260586255784 )
( 15.456772134573106 2.329095354336481 0.0940841818017495 )
( 15.25414152017134 2.4509157065386584 0.0706079483677568 )
( 15.039584791486172 2.575594197961524 0.047855778225403 )
( 14.821746144027998 2.7071147713795303 0.0276610510825097 )
( 14.589971446095468 2.848034462191426 0.0089148049044615 )
( 14.350834463589091 3.0037141199879724 -0.0080973118736905 )
( 14.111979341718513 3.1781585558685426 -0.0236605790143089 )
( 13.86638040081004 3.366615663391754 -0.0370071065652376 )
( 13.623037897315095 3.5463487042808683 -0.0480076872428934 )
( 13.385231942881262 3.709504645090136 -0.0570208374856189 )
( 13.152673673011355 3.8576375423959 -0.0642138551631932 )
( 12.931548131078564 3.9773242670149913 -0.070508072905446 )
( 12.721975405057767 4.090261750622696 -0.0750467910428509 )
( 12.514951682396848 4.218470459060485 -0.077960995982666 )
( 12.309543691897437 4.370215820448403 -0.0788509795249224 )
( 12.09937018722514 4.550832238070492 -0.0767078180741575 )
( 15.93972248653289 1.87208769302254 0.1437042980460067 )
( 15.761804941122104 1.9907349528735043 0.1192741221540009 )
( 15.544290759578212 2.153531745122498 0.0941434124063177 )
( 15.332740665348584 2.278757299555546 0.0709327764694955 )
( 15.115875203109145 2.399783686802765 0.0485633585728497 )
( 14.892063644511458 2.5198268696856125 0.0275072862724922 )
( 14.659017122652733 2.6474929135055807 0.0086969839731955 )
( 14.415792270959836 2.7858715960346974 -0.0084821583031245 )
( 14.15871228086614 2.9389389841107856 -0.0245438542457156 )
( 13.89868990002383 3.1154658000184683 -0.0386881043886889 )
( 13.633688239918804 3.3075665704707484 -0.0506405679484005 )
( 13.368381316104584 3.493485433241379 -0.0604055893992207 )
( 13.111628381844662 3.660395681809025 -0.0675007017061149 )
( 12.865373759027351 3.80165713505001 -0.0737406183137212 )
( 12.632755766067424 3.920039093010564 -0.0793245424755591 )
( 12.407519359402686 4.043592267207949 -0.0824117335811837 )
( 12.184085493076376 4.187194612529479 -0.0832291251917591 )
( 11.953594709706254 4.343822021450545 -0.0815012777559758 )
( 11.710860190576932 4.531536045896173 -0.0771117166177423 )
( 15.85759250337378 1.8237823648672336 0.1220414662568064 )
( 15.668596488332875 1.9443899372379727 0.096965269476918 )
( 15.42970503488558 2.1072279227733226 0.0714856376281779 )
( 15.20731461220294 2.2236563928579844 0.0492448169940403 )
( 14.982111130745528 2.338583049869589 0.028154368245894 )
( 14.750505150077409 2.456033275941607 0.00893838965496 )
( 14.503400108921667 2.580313221865148 -0.0085102848793444 )
( 14.243939010397977 2.719472441128174 -0.0244747352490811 )
( 13.97471090376196 2.87157751429445 -0.0392138279143203 )
( 13.696579481723736 3.0452482749813505 -0.0522649982892737 )
( 13.40893309433011 3.240063518802348 -0.0629658784213096 )
( 13.120321954770692 3.428559940192603 -0.0707400790274985 )
( 12.844925903996424 3.600314891536572 -0.0765367305895025 )
( 12.591323484234808 3.7408798803326335 -0.0820059262804232 )
( 12.348962040045077 3.862711870995293 -0.085688868311415 )
( 12.106454901619587 3.9948726732906463 -0.0870668809434044 )
( 11.856892677378545 4.146975736659091 -0.0862117485388363 )
( 11.59692773330101 4.31732716028663 -0.0826114091491656 )
( 11.344151027625983 4.529442290867223 -0.0780437289620254 )
( 15.781644638364218 1.7759063256935907 0.10256053438749 )
( 15.58066659538544 1.8948504539127848 0.0775881335187006 )
( 15.326436926709036 2.0542075160412554 0.052440961523802 )
( 15.092888565719988 2.1629491215822187 0.0301007216476313 )
( 14.85911892299806 2.269070920337166 0.0098170722408003 )
( 14.6168882361445 2.389483423232067 -0.0072260044385011 )
( 14.35765727530064 2.508926415737042 -0.0234606217012533 )
( 14.079969733212812 2.641943600330765 -0.0387201458661692 )
( 13.795189844494155 2.799595647079565 -0.0521348412158041 )
( 13.500791654985417 2.971140894817744 -0.0636856054679627 )
( 13.187138649982163 3.171356291267668 -0.0730443665058749 )
( 12.874844645134736 3.366650318822385 -0.0794795861988689 )
( 12.592290874849226 3.533666424986551 -0.0843756813570217 )
( 12.33484153103772 3.674564675862103 -0.0880360964064352 )
( 12.079441766472216 3.8046872870959 -0.0897090457933304 )
( 11.815581010941056 3.944214906325678 -0.0899402391490725 )
( 11.53666402332265 4.103053655179635 -0.0871778806906099 )
( 11.255810736242005 4.296786226707919 -0.0839852920692962 )
( 11.024746668923411 4.560361916871904 -0.0810507011113137 )
( 15.71102313786761 1.7265443460860646 0.0847052841424206 )
( 15.495274134735874 1.840927945921913 0.0599278404832453 )
( 15.23068598882102 1.998083567661065 0.0357747382655488 )
( 14.992883986819006 2.102666854414181 0.0142794124110143 )
( 14.748674907653909 2.2044856332367253 -0.0047496110194942 )
( 14.490065943517942 2.321329087505615 -0.0210655645034512 )
( 14.216696814607635 2.4339909231789085 -0.0369858488557026 )
( 13.932523478084306 2.5653158018845605 -0.0508185370100638 )
( 13.630988371599154 2.7258701664867826 -0.062652800188738 )
( 13.312865865580685 2.893441794318368 -0.0731923431043115 )
( 12.987842504391493 3.0903615578174044 -0.0807929606610778 )
( 12.661067096796142 3.300141930579972 -0.0859141429655008 )
( 12.367871061460509 3.468981545678293 -0.0894764181571588 )
( 12.096178194636702 3.6070123924338153 -0.0912278063301797 )
( 11.8177333381683 3.7446497814939175 -0.0924582735022988 )
( 11.522526582276912 3.889094903235716 -0.091958042213839 )
( 11.223448865939034 4.064555333441391 -0.0890994063642463 )
( 10.951950830075166 4.296197603678412 -0.0876443211852625 )
( 10.756821779889409 4.616301833232307 -0.0835991232602586 )
( 15.640700446408305 1.6761516352646726 0.0675625569952911 )
( 15.4142220844095 1.7858752813333636 0.0430726092632386 )
( 15.140047751047074 1.9374373992093383 0.0197563626735647 )
( 14.899632316647518 2.0373886450064567 -4.871242529281794e-06 )
( 14.647438944228686 2.1402721463128898 -0.0174099646278354 )
( 14.37437443174111 2.2526793432290755 -0.0334617526913883 )
( 14.090431365292204 2.355120020405188 -0.0490271362328146 )
( 13.79423337921475 2.4880145449121773 -0.0611941354064176 )
( 13.474382507169334 2.651587384567061 -0.0714265647441447 )
( 13.13883813617026 2.822715524715426 -0.0805105273826982 )
( 12.795509456939593 3.013543416105969 -0.0869455113362707 )
( 12.455641742102689 3.21413762889007 -0.0911185927504342 )
( 12.150853736350165 3.389338847095575 -0.0932782660025052 )
( 11.857812971460351 3.537259095145816 -0.0939619666090249 )
( 11.553619954517853 3.67372320160244 -0.0943564546204847 )
( 11.23795519496203 3.82636026564125 -0.092991375755646 )
( 10.93121493803752 4.028566270094676 -0.0917827955514213 )
( 10.689647030747867 4.314078260653891 -0.090552603391181 )
( 10.4946190310611 4.676707276318368 -0.0835882261791247 )
( 15.57535731017869 1.6232529783092784 0.0525602907928519 )
( 15.341063698723476 1.7273772300026329 0.0285643902199745 )
( 15.054436430204634 1.869651620252438 0.0049989117581068 )
( 14.81101885072952 1.9691163208941076 -0.013366838411669 )
( 14.549980869278835 2.0684264210145784 -0.0293964284954693 )
( 14.26241022584134 2.1784748285968094 -0.0445854466027472 )
( 13.977798162111489 2.281184085925881 -0.0587712933073492 )
( 13.667019431271424 2.4055187463137635 -0.0701253419386178 )
( 13.325434152827642 2.568464306308568 -0.0795197318006312 )
( 12.971448929940475 2.747338639897233 -0.0872163857901572 )
( 12.60500858162473 2.941830747770493 -0.0924783306908996 )
( 12.259567975257106 3.13304643290908 -0.096127784627556 )
( 11.937110216523694 3.303748315692525 -0.0979706986597661 )
( 11.618537844177045 3.4590655526192977 -0.0972397965906289 )
( 11.2998411183031 3.604226420331022 -0.0955476635318834 )
( 10.975993336922146 3.778830574425896 -0.0934846762052067 )
( 10.673850677653256 4.018438754032353 -0.0936784028088183 )
( 10.447244076265935 4.347956880619086 -0.092038592132178 )
( 10.149867905138231 4.689122431094825 -0.0840577826786413 )
( 15.51830992271359 1.5685713761185975 0.0395935639517476 )
( 15.271024004548735 1.6635929414638333 0.0154620621685896 )
( 14.974484041069203 1.7994169364227774 -0.0080530619545777 )
( 14.725361487325396 1.8975339226024024 -0.0252414454900338 )
( 14.456641899831215 1.9950742672253696 -0.0402701020560999 )
( 14.158910784900742 2.1064246443071224 -0.0543617465932002 )
( 13.862533840408773 2.2082715945931115 -0.0669628673080709 )
( 13.544550225201352 2.3246044706022304 -0.0775425741704391 )
( 13.191248802654387 2.480555188232385 -0.0862335212356481 )
( 12.816099023647103 2.656364472346439 -0.0934183992661752 )
( 12.432885837963488 2.859473372516057 -0.0978804054350544 )
( 12.077156105556533 3.0575748013027604 -0.1002638332657259 )
( 11.732144493722126 3.223738101432313 -0.1021068485302509 )
( 11.393698101260496 3.375532083649375 -0.1008435003738876 )
( 11.056039982517683 3.544954575946174 -0.0970672357207954 )
( 10.725373448612212 3.7458218187047807 -0.095209743863506 )
( 10.440983865496694 4.022391520098196 -0.0961946502507948 )
( 10.16711749880274 4.375908677455398 -0.0910696637321251 )
( 9.678102183766084 4.625732357370966 -0.0829814458692202 )
( 15.46105502168536 1.5079983327819644 0.0269878604625832 )
( 15.208759886064946 1.601455584331663 0.0038863705435424 )
( 14.90802540280922 1.730058038222444 -0.018742459296409 )
( 14.64692471700556 1.8187095706275656 -0.0357298026929388 )
( 14.370474142538438 1.9173587044523648 -0.0502598612083062 )
( 14.067239792795249 2.03196490108801 -0.0632263850205622 )
( 13.756629689078878 2.128802974701572 -0.0744229102343976 )
( 13.431888558863063 2.2392255935239347 -0.0840590794719038 )
( 13.060348311740288 2.394505404403766 -0.0918495130234966 )
( 12.668917333799218 2.5701391537512763 -0.0982982426058897 )
( 12.271949527721612 2.772439600297859 -0.1026136943153198 )
( 11.891445581461156 2.974810406226607 -0.1040893993784833 )
( 11.53614451523982 3.148476211486181 -0.1044864753569822 )
( 11.19144300103178 3.301275196491111 -0.1022693761611022 )
( 10.833849556573105 3.4876630047263357 -0.0994922438740713 )
( 10.490973778800068 3.720079507268584 -0.0994790288054436 )
( 10.210652342968546 4.028035970983486 -0.0973980959538713 )
( 9.843213929901486 4.375200753392229 -0.0894917808521553 )
( 9.056014053753753 4.460249240841628 -0.0808231320398928 )
( 15.405582782175642 1.4454310409566329 0.0153445911338675 )
( 15.151032016631454 1.539550414773164 -0.0062503663406156 )
( 14.845750771073975 1.664839088911911 -0.0281270672251504 )
( 14.578415903750445 1.748499119470465 -0.0446334592307309 )
( 14.29055989867079 1.8429339677145424 -0.058579233512223 )
( 13.97246954504988 1.946771507064692 -0.0712206552283461 )
( 13.65254180020589 2.0421317825128438 -0.0817340128127129 )
( 13.321759657096582 2.1500418628754407 -0.0908318004319316 )
( 12.925474866427535 2.305385449853604 -0.0978672623134411 )
( 12.51867995989994 2.4881693102661564 -0.1028641096798931 )
( 12.119420006782224 2.686065903147337 -0.1062272599052119 )
( 11.729144068305304 2.890312277630235 -0.1066705382771805 )
( 11.360577897253645 3.073838722501585 -0.1055763039339228 )
( 10.990639263330085 3.2328527530290576 -0.1022294840951406 )
( 10.624196355904148 3.4277067616759203 -0.0999403638820669 )
( 10.28074589382608 3.691664661751846 -0.1003761409019851 )
( 9.951087479268018 4.027647917249593 -0.0968525251772803 )
( 9.501066788025378 4.350102613449107 -0.0904060500098072 )
( 8.231504678263232 4.149954587331186 -0.0758013780106248 )
( 15.354471002823852 1.3891984252314415 0.0054014254054892 )
( 15.09284066711026 1.478270042876871 -0.0158529250386654 )
( 14.783501514462731 1.5987868835535182 -0.0372828251503466 )
( 14.514878013815624 1.681601742611169 -0.0526385969772855 )
( 14.216532206962244 1.7690953188849845 -0.0661308256754178 )
( 13.89051842553724 1.8621510638488248 -0.0783774454821669 )
( 13.562055933880671 1.9616343142864812 -0.087839761233653 )
( 13.215100259968638 2.0760394865113208 -0.0961841723883989 )
( 12.799436435589476 2.22399629782454 -0.1031862733288821 )
( 12.3719284595876 2.407717117343427 -0.1070969366829321 )
( 11.966683498347184 2.6008265025353468 -0.1086185073473114 )
( 11.575776565153008 2.792762141497993 -0.1084777850367636 )
( 11.190493605161526 2.9759865787412174 -0.1066959915263826 )
( 10.797178531763528 3.151820386312215 -0.1033581624888645 )
( 10.418604776010532 3.3672341396425747 -0.0995994608792076 )
( 10.067230931431023 3.657616862614783 -0.0972741951130512 )
( 9.662293780618883 4.0057053944319465 -0.093973634905602 )
( 8.981559938159435 4.2138296320013655 -0.0856542724808219 )
( 7.407059794745446 3.802204204231253 -0.0668774824181633 )
( 15.30961340287542 1.3300806400286858 -0.0035884260245228 )
( 15.041789109723055 1.417522958972136 -0.0244556237423861 )
( 14.723299465748504 1.5333707034739 -0.0457517222683468 )
( 14.450592416293466 1.6094331218537383 -0.060412491105349 )
( 14.147102088487458 1.696311243669554 -0.0726552423037935 )
( 13.82146534422581 1.7917758277303537 -0.0845246525440133 )
( 13.489337548692504 1.889920627742089 -0.0933141261198769 )
( 13.120313204062205 2.0011160610992995 -0.1007472630562686 )
( 12.693106461757424 2.146756689172508 -0.1075758911163789 )
( 12.257381896398762 2.327966581402592 -0.1105386681014006 )
( 11.834542045223822 2.518474189582696 -0.1112437946206531 )
( 11.41872315680808 2.7009105665518303 -0.1108018188507918 )
( 11.013286474958136 2.8771405130993517 -0.1093359147158739 )
( 10.608394590043336 3.0645070917423967 -0.1070538418845821 )
( 10.22237371305832 3.3082981680493018 -0.1027772126785081 )
( 9.844705720173202 3.6335506666178383 -0.0988614000391054 )
( 9.371119524798775 3.969528158760817 -0.0924363314877069 )
( 8.386124968603843 3.993362771684013 -0.0782645525589619 )
( 6.679543838179513 3.4707312089798386 -0.0606922045954706 )
( 15.26930577483366 1.267965497293031 -0.0117637290753488 )
( 15.000378061713516 1.3551618331756057 -0.0317678915476221 )
( 14.672087907239904 1.4691134348931147 -0.0525003356259978 )
( 14.390660152948486 1.5390833113714195 -0.0666009804210136 )
( 14.079804444713034 1.6212198813439598 -0.0787025981870291 )
( 13.750232740549432 1.7157393653136328 -0.0899927033153056 )
( 13.41106999914216 1.8025721085021835 -0.0988212302177544 )
( 13.030067948291638 1.9117532363518808 -0.1058460027648934 )
( 12.60339722033052 2.0670273814147584 -0.1111841715600104 )
( 12.16065976626914 2.245503517841812 -0.1135634796608665 )
( 11.715535847837517 2.4374064337737784 -0.1147810495403957 )
( 11.274121913763366 2.6125899542261166 -0.1138019268349368 )
( 10.850287522600242 2.783814481841498 -0.1128000659142413 )
( 10.423728640850324 2.9855452841065584 -0.1108963321608978 )
( 10.025382769419354 3.2477657430151807 -0.1054224130471116 )
( 9.596778172151213 3.5905530974917323 -0.1013046016216974 )
( 9.030097934410236 3.8866596951126646 -0.0939987780830447 )
( 7.864909910792246 3.7679362722130505 -0.0755557869798532 )
( 5.989487160952209 3.1234184907876683 -0.0560804844724261 )
( 15.233713536932102 1.2142921503124608 -0.0187527261935384 )
( 14.961431657841752 1.2960388645448644 -0.0383182939337645 )
( 14.626378841174178 1.402840716805592 -0.0587624855386957 )
( 14.33777899749947 1.4709215855210458 -0.072600581779459 )
( 14.020131309387256 1.5456337534471989 -0.0846706644929054 )
( 13.687453781174096 1.6307369557284406 -0.0950228878648523 )