/*--------------------------------*- C++ -*----------------------------------*\
| =========                 |                                                 |
| \\      /  F ield         | OpenFOAM: The Open Source CFD Toolbox           |
|  \\    /   O peration     | Version:  2112                                  |
|   \\  /    A nd           | Website:  www.openfoam.com                      |
|    \\/     M anipulation  |                                                 |
\*---------------------------------------------------------------------------*/
FoamFile
{
    version     2.0;
    format      ascii;
    arch        "LSB;label=32;scalar=64";
    class       volSymmTensorField;
    location    "0.0037";
    object      tauij_LES;
}
// * * * * * * * * * * * * * * * * * * * * * * * * * * * * * * * * * * * * * // 
 
dimensions      [0 2 -2 0 0 0 0];
 
internalField   nonuniform List<symmTensor> 
13597
(
( 0.1942701219545649 0.0528069990885583 -0.010163847352803 0.0921969966157543 -0.0304604401528008 0.1794417082421716 )
( 0.1963903067643921 0.0568092696399191 -0.0089727661850205 0.0932874717625379 -0.0270106107001246 0.1855936788887585 )
( 0.2010033503534364 0.0641853906431686 -0.0072864519124257 0.0958641292123809 -0.0206024028314735 0.1993051200630566 )
( 0.2079932945100045 0.073868868304063 -0.0047051742471545 0.1009315319630242 -0.0126871090083635 0.2181513571067628 )
( 0.2149736893421679 0.0814895220790326 -0.0022670481358901 0.1064969999417791 -0.0062022795006027 0.2312584922445897 )
( 0.2218587845439271 0.0866877077060726 -0.000467511627062 0.1116582677582271 -0.0012707701767999 0.2377849898441413 )
( 0.228972482099845 0.0917220440669025 0.0007166046973822 0.1169052040780566 0.002652499688967 0.2419969273836499 )
( 0.2363985723497022 0.0963825098441342 0.0016740213998827 0.1221353167606887 0.0058458453656487 0.2428108126677489 )
( 0.2443855206863439 0.100384731902068 0.0028050624889064 0.1268128444854858 0.0086117573735429 0.2417158667498139 )
( 0.2525606516110179 0.1040728340228455 0.0033602547067571 0.1312029179988044 0.0107963977144242 0.2387748947359801 )
( 0.2615385721610391 0.1072739777909431 0.0033785572447479 0.1361047943055796 0.012947872945983 0.2336054587930909 )
( 0.2712363495044809 0.1102686464849471 0.0037648316348541 0.1408611194212518 0.01496457267098 0.227589027027132 )
( 0.2804767455157042 0.1131855052992303 0.0043196311763564 0.144834310792755 0.0163224481861451 0.2209910162654396 )
( 0.2893621386092944 0.1156469543019608 0.0041460418188687 0.1491899724866864 0.0179769719723511 0.2133862858486976 )
( 0.2985656681819923 0.1181269698454972 0.0028489463240662 0.1543303008259688 0.0195514968391773 0.2044710025685575 )
( 0.3069863368235743 0.1206776472527046 0.001870436689169 0.1590335890181718 0.0210757311645483 0.1966769708258551 )
( 0.3145365822038143 0.122413507936242 0.0021414780114688 0.1634160963511313 0.0228790589322639 0.1903680550326876 )
( 0.32154350311338 0.1236923831622019 0.0020515918924903 0.1677741780697809 0.0248923226823654 0.1840473802278351 )
( 0.3284247462592087 0.1257795889242575 0.0016527597476342 0.1723795733663885 0.0268104364042162 0.1780702997614702 )
( 0.1981930637038006 0.0641197076886035 -0.0045442011610053 0.1035515102764192 -0.0207432278049162 0.1705264584329761 )
( 0.2014552912527884 0.0715723444648617 -0.0038366853412134 0.1077901342277114 -0.0164657326899954 0.1770565959454722 )
( 0.2095026375150639 0.0838864877651883 -0.003047853735835 0.1146009016532601 -0.0097689754734073 0.193423667930904 )
( 0.2218276071998507 0.0975663710473744 -0.0015071129634328 0.1244297766278505 -0.0028005269375399 0.2138258968262443 )
( 0.2323814620728904 0.1073693502888349 -0.0014079859245409 0.1324397009457256 0.0012265234295232 0.2241612012307242 )
( 0.2420285062095976 0.1147758420622533 -0.0021732266609763 0.1391597862699042 0.0037228603993641 0.2299999852159314 )
( 0.2518320645298617 0.121298229342413 -0.002914473530086 0.1456710107818538 0.0049771661505511 0.232812643338836 )
( 0.2620018409723126 0.1271805635102384 -0.0042689375587308 0.1520120209662676 0.0051466407411999 0.2326133013539065 )
( 0.2720124063288344 0.1317320989006428 -0.0052893737324978 0.1571273953751794 0.0053362547517073 0.231350394290089 )
( 0.281391511812249 0.135304980634783 -0.0057815128984633 0.1617473054193397 0.0050066623716906 0.2281432970450018 )
( 0.2911610228742839 0.1379973684219509 -0.0067065385815787 0.1663087523019889 0.0043702746429576 0.2225984307211698 )
( 0.3008624481787217 0.139741992931811 -0.0073346698391229 0.1702563473267789 0.0039575354500296 0.215520896046544 )
( 0.3090706673888106 0.1405407077340686 -0.0075487731363645 0.1738208688503849 0.0033448343613803 0.2083008117641346 )
( 0.315951660703503 0.1406808662589173 -0.0067291709804636 0.1771669486726677 0.0034164949319794 0.2007925197450205 )
( 0.3217403555499231 0.1401545675743178 -0.0051237511614216 0.1801829125678545 0.0041387494676547 0.1935265065828604 )
( 0.325934922034176 0.1390923613479404 -0.0040219902314784 0.1826359165672755 0.0044681671646949 0.1874809292362158 )
( 0.3282952201000517 0.1374572073176212 -0.0023907734680987 0.1844147254962579 0.0048577789010239 0.1826719444458048 )
( 0.3293512285588648 0.1350547571420861 -0.0004610411693727 0.1862301472267809 0.0054903728379896 0.1782443998153511 )
( 0.3296994714774174 0.1327956407839268 0.0012634030203644 0.1879556910436743 0.0059719135806786 0.1746953981052268 )
( 0.1993558931236767 0.0787549843272719 -0.0019940366208449 0.116308633676154 -0.0115120628210928 0.1701861380652218 )
( 0.2041230799930016 0.0889299421861731 -0.0025613352227507 0.1234022559445397 -0.0069154663454154 0.1788528813361697 )
( 0.2156590772436094 0.1038735864630595 -0.0040028996870479 0.1338893762098454 -0.0013002049261875 0.1972704550342861 )
( 0.2309104127611763 0.1188358117753912 -0.0057797958278286 0.1461916541675152 0.0036238546985697 0.2177600661567723 )
( 0.2425994168126758 0.1287885805737807 -0.0088270469865396 0.1552092892793808 0.0052693910379537 0.2266060455315122 )
( 0.2532761854925909 0.1360976175918294 -0.0118231452422682 0.1623053393362655 0.0053314115496817 0.2313497132391811 )
( 0.2630620797448202 0.141370876833063 -0.0140302057377713 0.1681207553437808 0.0042860967346901 0.2327506561007347 )
( 0.2719541843818225 0.144948236007405 -0.0159014609373908 0.1727398859101071 0.0027152164054421 0.2321564906767798 )
( 0.2803544936683682 0.1464046484820767 -0.0166078637468331 0.175865679422732 0.001449496602603 0.2298762393268873 )
( 0.2878275301412902 0.1465698669325266 -0.015416414391581 0.1780338837694973 -9.40045610604006e-05 0.2249324470752091 )
( 0.2929146752319753 0.1454094452015105 -0.0133581176379789 0.1790552644704421 -0.001233598872309 0.2187915087318855 )
( 0.2973593158661953 0.1425941325238037 -0.0105194101505423 0.179237929926613 -0.0015277661886152 0.2127069643553303 )
( 0.300411277681065 0.13829981969828 -0.0070815663981438 0.1790419424934826 -0.0015675825248184 0.2073789386559456 )
( 0.3008278050902157 0.1332853304470669 -0.0028007961181645 0.178278677507914 -0.0014101207127305 0.2025611866392121 )
( 0.3000220089270599 0.1282969257125734 0.0023893840881888 0.1770580507582101 -0.0009074595708346 0.1990401294847512 )
( 0.2983221556660546 0.123391573252679 0.0059888031543067 0.1756744392151397 -0.0006122798689266 0.1964386929074871 )
( 0.295180404544886 0.1187368054051942 0.009001457517805 0.1741587034197267 -0.0005308945547109 0.1942282954582598 )
( 0.2909423982761476 0.1139707434838769 0.0122896385113533 0.1726184293755884 -0.0002662015089111 0.1924530333342509 )
( 0.286453339384168 0.1092028759854473 0.0149509446453604 0.1711054851927189 -0.0003214105508822 0.1908320321111872 )
( 0.198778921024719 0.0926645992349503 -0.0012868305704808 0.1297247442972671 -0.0040908256272799 0.1747518503712537 )
( 0.2048642255198229 0.1043521565130524 -0.0034350617405542 0.1393062312368898 0.000119392231828 0.1855755617776614 )
( 0.2180683942220969 0.1192413309639454 -0.007991038751026 0.1516984244581021 0.0034450012038244 0.2030930845074657 )
( 0.2327966272625226 0.1323279069924051 -0.012777472193558 0.164281193479605 0.0054066679213177 0.2209802987513645 )
( 0.242718017905796 0.139883609414334 -0.0162211277756051 0.1724357105059504 0.0052731938200635 0.2288540617182808 )
( 0.2508972771516327 0.1441558253743403 -0.0179692563787776 0.1774997217178226 0.0039413720713171 0.2319025681329579 )
( 0.2575414130961474 0.1458547447829995 -0.0180242855719479 0.1805783417337309 0.0024276958510296 0.2311866618590392 )
( 0.2627616774873812 0.1455246943087793 -0.0155841287965237 0.1817634409628449 0.0010316345887818 0.2289078551059014 )
( 0.2667066261183192 0.1431726818211046 -0.0112715047626236 0.1812747057692126 8.71704324267058e-05 0.2249863221592103 )
( 0.2702032213035694 0.1393108910971479 -0.0053129227362395 0.1796209056635909 -0.0002595453023338 0.2194899624857847 )
( 0.2709861656551013 0.1338432356431606 0.0016771531686531 0.175655524009791 -8.65120472797435e-05 0.2128837206428453 )
( 0.2702313176317365 0.1272493821277215 0.0091280353400974 0.171350604220779 0.0004458365795392 0.2070920777040469 )
( 0.2692258470758067 0.1208596795590524 0.0168432868024018 0.1672167089739233 0.0008003948377014 0.2017039616090725 )
( 0.2674771165901641 0.1145060116244708 0.0236914253033195 0.1626271078012408 0.0013374671212538 0.1972221099901768 )
( 0.2655551817592897 0.1091520577492114 0.0295388165346529 0.1589051095679632 0.0018049714956091 0.1940234871882031 )
( 0.2636939946224121 0.105395895026335 0.0343020374351817 0.1561604988660783 0.0017301879591675 0.1910763724848857 )
( 0.2614368939494515 0.1024660748460168 0.0379367999479825 0.1537397644133051 0.0016242758698946 0.1883419532519164 )
( 0.2595518952544458 0.1001922673314011 0.0409951495395252 0.1518427695742444 0.0012103918344427 0.1860667414962759 )
( 0.2578491970429424 0.0985713061232768 0.0437231934014573 0.150422711209068 0.0004637815093408 0.1842355074015738 )
( 0.1971657239067392 0.1039716239615991 -0.0025532247173016 0.142214563220431 0.000941534470714 0.1818065601840067 )
( 0.2037134778449304 0.1149974111948475 -0.0056556539750309 0.1529038108049876 0.0033688255326431 0.1928004504185916 )
( 0.2162861896566681 0.1278881840643296 -0.0110176044976118 0.1658536104391375 0.0049303605820701 0.2095187097183653 )
( 0.2284078704319863 0.1373170051751233 -0.0147407731825216 0.1772696803954678 0.0051150181495255 0.2239840148059756 )
( 0.2347934477611959 0.1408747237516231 -0.0146296192417117 0.1829730868552433 0.0043386730342386 0.2290471838342265 )
( 0.2398671197866086 0.1414269156963317 -0.0118971434292051 0.1852623586577716 0.0033383279529141 0.2292344732421179 )
( 0.2438497901743921 0.1396426570631256 -0.0060812512500934 0.1849377098765794 0.0031371598438613 0.2249096886423807 )
( 0.2460256499490001 0.1359159547182263 0.0018553079411778 0.182208224268342 0.0035490951847453 0.2195699972987305 )
( 0.247668976518486 0.1312071050386972 0.010361816805116 0.1776301574422214 0.0038079813948949 0.2125634899634941 )
( 0.2495327633853375 0.1257504458423232 0.0192308940596362 0.1721235725740591 0.0044012647363622 0.2037330725478735 )
( 0.251130343616559 0.1199615078656456 0.028657132584386 0.1658398346875874 0.0050068081293289 0.1947482853226375 )
( 0.2519719366270627 0.1144931385634668 0.0379078716600873 0.1596396192330909 0.0055681668920213 0.187325617719676 )
( 0.2526242287644657 0.1100983829610468 0.0455204739081501 0.1540020119247041 0.005894471318569 0.1811375866453114 )
( 0.2533377953648252 0.1070684566188929 0.0516038139726782 0.1494231288919988 0.0060729601542084 0.1761376768438764 )
( 0.2541917543768678 0.1055571487101551 0.0561691314770998 0.1463868489062268 0.0059672162577017 0.1721681011849289 )
( 0.2555900050314641 0.1057377666679694 0.0597954736755157 0.1443880187509889 0.0053545831653627 0.1693072133753874 )
( 0.2569456145309522 0.1070051379553977 0.0620053549796519 0.1431244502654217 0.0045921662525278 0.1672496707384688 )
( 0.2591746129067273 0.1093259443039486 0.0631481361625897 0.1428610763742624 0.0033573824588714 0.1660667702982667 )
( 0.2622028024373958 0.1130245870441088 0.0636381224590492 0.1435409555164872 0.0015889539934652 0.166006208949543 )
( 0.1947195464892789 0.111154930542898 -0.0032288210913326 0.1528273989178798 0.0031128112527446 0.1891513794199409 )
( 0.1998555477808406 0.1199272133452791 -0.0057926464479789 0.1636554509479267 0.0044905644933577 0.2005347030833065 )
( 0.2101375115634538 0.1297167327365975 -0.0086505856906538 0.1762866576439881 0.0056441337597677 0.2160425524080727 )
( 0.2194771327333365 0.1353622681374121 -0.0078832873612745 0.1854326314838229 0.0058356818767064 0.2261082565651148 )
( 0.223553447018417 0.1353786732628989 -0.0030171387079461 0.1881792505250065 0.0059146088102324 0.2260915548408085 )
( 0.2278322567199327 0.1332370724797538 0.0041087477491236 0.1877789914131942 0.006190134098 0.221922314800297 )
( 0.2318353828058393 0.1298205078865169 0.0133976753211913 0.1847420157245579 0.0068948171308951 0.213522432539657 )
( 0.2344692882641342 0.1251339995894097 0.0232589404419585 0.1794434383160907 0.0082355608181486 0.2031241611770709 )
( 0.2376692945248296 0.1206032267863216 0.0327534122551677 0.1731344955160788 0.0093522398349844 0.1914344988994543 )
( 0.2412541797840514 0.1167462954506559 0.0423213613123736 0.166230909352263 0.0101604908378699 0.1790812757081309 )
( 0.2451924743355062 0.1139059010624277 0.0514427463547544 0.1599104761933623 0.0106155306997301 0.168529981626366 )
( 0.2492035238941839 0.1122776574205672 0.0584500598297987 0.1541664803527924 0.010377311318891 0.1600911330846923 )
( 0.2529609820853871 0.11204299304245 0.0633989418104923 0.1491794767586726 0.0097742733520162 0.1547040705299289 )
( 0.2566489139175562 0.1138666731082434 0.0665826552831674 0.1465829739917793 0.009032573809545 0.1510686633554585 )
( 0.2609423749258057 0.1174748157930813 0.0679415597504802 0.1460139832658853 0.00753592974413 0.1488033393892577 )
( 0.2659585449518419 0.1221859755398163 0.0681678759574558 0.1462380484810296 0.0057184493609805 0.1487207816088244 )
( 0.2713310066046544 0.1278849243812779 0.067212231875973 0.1474120287061467 0.0037400271343712 0.1500036619191309 )
( 0.2775811703215488 0.1347997590654855 0.0651305062433814 0.1496429718170252 0.0013478383980641 0.1523019185466118 )
( 0.2851618799340907 0.1433525365539206 0.0621442712354368 0.1528923374869264 -0.0015790042431419 0.1568021347511694 )
( 0.1896042875978506 0.1139937338245131 -0.0017745887521235 0.1625055337578187 0.0042224870293183 0.1975185008119094 )
( 0.1935862748750572 0.120538754158633 -0.0019333060911798 0.17328804173296 0.0062130162736634 0.208947048766179 )
( 0.2025304480367192 0.1273075468313884 -0.0006071690056776 0.1844629818084531 0.0078485263546864 0.2205120427215657 )
( 0.2103350922253895 0.1296281093002286 0.0049434301585112 0.1906152587703036 0.0085908561946727 0.2240416892347871 )
( 0.2154912082592076 0.1279711934671815 0.0128302366153306 0.1910980768189763 0.00929607811566 0.2185008586894428 )
( 0.2204210996951546 0.1250255340412722 0.0218450452744712 0.1887640077898069 0.0101927570867202 0.2088550301351088 )
( 0.2246157148318578 0.1214984690444387 0.0311143268284957 0.1840940947728363 0.0110610166923524 0.1956016238134232 )
( 0.2294503085887104 0.118134347330495 0.0403896094000924 0.1783618902456667 0.0125109661554962 0.1803416840494485 )
( 0.2356317667368689 0.116068389656601 0.0491117820119592 0.1727978448250245 0.0138055646821539 0.1652802475315013 )
( 0.2415879198046817 0.1153277042301412 0.0564238071039751 0.1669875223694825 0.0142538738368284 0.1523165205111226 )
( 0.2468379615672247 0.116042813710716 0.0621536711148852 0.161297872056203 0.0138013490703539 0.1423324925325148 )
( 0.2528602871218568 0.1187131189906692 0.0655730057073656 0.1571347690806939 0.0122767072245156 0.1358934880869543 )
( 0.2597857123301066 0.1234198657305872 0.0671324020650168 0.1548115521774974 0.0102737105246439 0.1336675957604182 )
( 0.2672106775299361 0.1298787157151013 0.0668192823691817 0.154620734104232 0.0079999171354116 0.1338438069460777 )
( 0.2751230469637451 0.1378173491121992 0.0647289624132584 0.1565795761880501 0.0049335141892858 0.13615272730549 )
( 0.2836280451177478 0.1468644350355935 0.0617433989599972 0.1598229997282466 0.0018924736892253 0.1403644996077133 )
( 0.2930844555091965 0.1567249018100764 0.0581850873391519 0.1637100435406274 -0.0012391066536397 0.1459698248757979 )
( 0.3038548617235012 0.1680948056155365 0.0534567813215702 0.1685393127974172 -0.0047941755858559 0.1532484353206603 )
( 0.3162889976164723 0.1810495804063661 0.0476179494683531 0.1743521327062546 -0.008741121165105 0.1624502986747757 )
( 0.1838202842794573 0.1140412657447155 0.0023245351058417 0.1708411458250549 0.0059671179324391 0.2074280212110552 )
( 0.1877637725773893 0.1185781482911548 0.0055001922601544 0.1810282773988774 0.0086878397801679 0.2162533183214892 )
( 0.1974000564119526 0.1229955962361261 0.0106096416657322 0.1905248583053347 0.0110025899784994 0.2222293573667972 )
( 0.2054243571112663 0.123437659667844 0.0185675979067367 0.194527055712037 0.0120995847902011 0.2190405011479902 )
( 0.2115375652599186 0.1214236519814864 0.027194306361262 0.1933465429320816 0.0130926144637899 0.207572791707164 )
( 0.2177038950643445 0.119139931701613 0.0357767434263186 0.1903795857256976 0.0142816684246729 0.1920986158898547 )
( 0.2233661612630763 0.1170888555622872 0.0437765368762352 0.18613530881557 0.0151577655676014 0.1745288227426905 )
( 0.2290147381156153 0.1156791063230236 0.0504443460015081 0.1816833408209787 0.0159595613809993 0.1571876661906748 )
( 0.2358397787998162 0.1162907305328965 0.0564667290853802 0.1778886816818474 0.0162094044143173 0.1412193390911026 )
( 0.2428900715309025 0.118973261432388 0.0607273335307204 0.1737497555706289 0.0154702253048706 0.129010054696461 )
( 0.2499175676812126 0.123791053486397 0.0628447458121936 0.1696915035254685 0.0135313886306844 0.1218115655822471 )
( 0.258992958602214 0.1310162530050297 0.063269210965607 0.1674015676506047 0.0105693770202038 0.1204320071294787 )
( 0.2693660664285692 0.1402335678390621 0.0616012414696566 0.1683501884115884 0.007078776097631 0.1227750972856546 )
( 0.2803070904130005 0.1511278849264442 0.0580102013374481 0.1717548088967569 0.0031895156685247 0.1276068978754527 )
( 0.2917583359891677 0.1630674350013881 0.0535665298705875 0.1763923020379419 -0.0009051470050221 0.1346609610403737 )
( 0.3039511003780418 0.1761203252724339 0.0484840483226568 0.1824506147325771 -0.0048283153430085 0.1427847432431254 )
( 0.3174175167693054 0.1901498581308574 0.0428146798872227 0.1892476317735003 -0.008935316585753 0.1523680152613397 )
( 0.3325110659523098 0.2056777365131403 0.036294384399986 0.1967821668332094 -0.0133570718626249 0.164052105055127 )
( 0.3492982026400675 0.2223222939325868 0.0288591633919919 0.2049630653169483 -0.0180626446786254 0.1768620596759849 )
( 0.17824036257744 0.1121062857648309 0.0096007760429147 0.1772161185413398 0.0087494746566338 0.2166594685006174 )
( 0.1825586598387592 0.1148674524875733 0.0153613671367949 0.1867853345697417 0.0122020557947583 0.2219769132460421 )
( 0.1935300368031148 0.1178962121716531 0.0218793696180706 0.1950290910373679 0.0144316043767194 0.2216568126840324 )
( 0.202583354002841 0.1180733758044428 0.0294020003462391 0.1979778165337214 0.0153219122501778 0.211958253199707 )
( 0.2099056964103325 0.1167621239028046 0.0375153097806072 0.1968585707754218 0.0166449471058176 0.194938344493208 )
( 0.2162756887031568 0.1156580056269071 0.044007670186375 0.1951026155367291 0.0176195899370895 0.1755001577498061 )
( 0.2218788112157426 0.1153715696463148 0.0494411496951133 0.1925491292257443 0.017710564916028 0.1549536695510344 )
( 0.2285124327211315 0.1165322169967287 0.0539063030893974 0.1893280155402011 0.0174179088516154 0.1368016834975182 )
( 0.235514001056088 0.1197771133417476 0.0571060298555061 0.1868386901130057 0.0163351589735796 0.1224313210401196 )
( 0.2434064095747616 0.1257299312845563 0.0585052204758055 0.1853786751774457 0.0141440282841542 0.1125960846189996 )
( 0.2533561716066508 0.1349375805422602 0.0578256995554525 0.1841229628864858 0.0106932500978133 0.1094382024049045 )
( 0.2657536909507142 0.1466325012608075 0.0558526232746954 0.1843691559762751 0.0063817839238396 0.113175292321017 )
( 0.2797879322027963 0.1605649963625479 0.0516801645691634 0.1888122179232514 0.0013501953023949 0.1202346599383464 )
( 0.2940034751817709 0.1757941651286835 0.0458753613957765 0.1956495268270202 -0.0037857180253228 0.1297728228649529 )
( 0.308747473230303 0.1914207698143684 0.0401017706686044 0.203023186156057 -0.0084958191981245 0.1407829122594712 )
( 0.3241884808731017 0.2081879683855199 0.0336534188037644 0.2119043457077144 -0.0132116811899198 0.1520326248469988 )
( 0.3403870787041022 0.2257951679349814 0.0264776232808987 0.2219721132442476 -0.0182481139918523 0.1642814013969889 )
( 0.358876002312599 0.244646553141112 0.0188034707468229 0.2323688308522653 -0.023393275077645 0.1779988735107392 )
( 0.3797648543300815 0.2647656920573421 0.0103529052831296 0.2429288996784664 -0.0285880653272468 0.1926814700616213 )
( 0.1739163011651441 0.1095608007591629 0.0185438014453653 0.1833222905777866 0.0132135091823599 0.2253984704232013 )
( 0.1799903309483924 0.1115114925240205 0.0250380609801078 0.1922691484930604 0.0164885806168417 0.2264190462715272 )
( 0.191043597438386 0.1137160026245796 0.0308789362117406 0.1992403586744278 0.0176443562442717 0.2187497995672483 )
( 0.2003949415282774 0.1143640726350662 0.0372534757382359 0.20225303041667 0.0181841256389515 0.2030229767963011 )
( 0.2080795011463433 0.1142744490748347 0.0428810888968835 0.2030120814511394 0.0189714983632745 0.1815027838303536 )
( 0.2136219366517424 0.1143596045542353 0.0469987706412797 0.20315871140364 0.0191631898999852 0.158852555838634 )
( 0.2183912469911358 0.115608449195026 0.0503143359987747 0.202155844487952 0.01839924581392 0.137045431559709 )
( 0.2250834105973061 0.1193489622481909 0.052744953468864 0.2007027459987309 0.0167278620026163 0.1192758401312945 )
( 0.2326388865557762 0.1255950228729833 0.0535261688319385 0.1999262637692447 0.0141648079633557 0.1078240785997409 )
( 0.2427375413671502 0.1352225953188374 0.0528094957855304 0.2005771466328074 0.0105389896389362 0.1024650916980274 )
( 0.2564739739179177 0.1483835306131828 0.0503366993977758 0.2024168370823527 0.00587009370909 0.1040904401764789 )
( 0.2716831437985967 0.1641246771507511 0.0462057018464821 0.206454418939542 0.0003867691955591 0.1120203509272186 )
( 0.2884997782714997 0.1821606309272481 0.0405570685151968 0.2140923687707422 -0.0056823944436542 0.1236052979092651 )
( 0.3057510697772075 0.2010743940965422 0.0339197014217308 0.2237653079971132 -0.0116357423295456 0.1368240511074977 )
( 0.3228599687265384 0.2204162950030152 0.0268544135537813 0.2349194542703726 -0.0171950544999094 0.1498082901314945 )
( 0.3406572050836545 0.24076657942941 0.019235135695653 0.2475231387275727 -0.0227292096652465 0.1627910804474139 )
( 0.3600380081376668 0.2621155561151588 0.0112468006135036 0.2611928736114032 -0.0283664140878 0.1763113759517645 )
( 0.3826315738457292 0.2845732807382368 0.0028848609433084 0.2746611154712758 -0.0339493656241648 0.1904249883036312 )
( 0.4091580145301242 0.3085901546899354 -0.0060287734748475 0.2874945304343484 -0.0390618694807817 0.2051858302504311 )
( 0.171634626421236 0.1075996834281119 0.0275514613255253 0.1888469010014152 0.0178704366393696 0.2326547727740874 )
( 0.1786282378540449 0.1089090366856197 0.0326586078342636 0.1970072900831171 0.0202232657996499 0.2280334969604514 )
( 0.1892384865762676 0.1108162912282186 0.0371307910577848 0.2041885553583001 0.0204682922608019 0.2143939916591384 )
( 0.1975868755727241 0.1120942487216655 0.0413652932971533 0.2082745525194625 0.0201772615130289 0.1938117880441184 )
( 0.2033222066514291 0.1127926994445351 0.0439548314143389 0.2106059970058449 0.0199444444029313 0.1680961011968854 )
( 0.2080684974876196 0.1140605062173646 0.0461574143561827 0.2125505081867413 0.019013219236479 0.1431252454814748 )
( 0.2134097745051489 0.1172010022739363 0.0479516228093672 0.214051893868184 0.0170137251002646 0.1219027197306854 )
( 0.2198870059559159 0.1229602781147384 0.0485326014024812 0.2147864368781654 0.0140224134061287 0.1063555412644689 )
( 0.2289355801083919 0.1320204943470441 0.0478965900316976 0.2155567085905146 0.0104729444017172 0.0980835196255956 )
( 0.2412185271385669 0.1452924889558269 0.0457986513401895 0.2181923518900185 0.0059373945861726 0.096975496426852 )
( 0.2571375186780496 0.162343360673848 0.042119644119328 0.2235478996095048 0.0002310288071452 0.1030168621402694 )
( 0.2757353034066608 0.1826140535423286 0.0365875048010276 0.2320108849895078 -0.0066221801571239 0.1149300106134796 )
( 0.294756635978608 0.2042215803582006 0.0300299982457291 0.2432683519855654 -0.0134388807367694 0.1292304849317559 )
( 0.3144389491495737 0.2265209271889026 0.022703766790428 0.2563276016180296 -0.0200479969037524 0.1444184641982497 )
( 0.3343207166917976 0.2498733598156723 0.0144396080787815 0.2719476705429699 -0.0266045402692056 0.1587308715206689 )
( 0.3552233633199792 0.2742538757991529 0.0062650638912395 0.2890692710457965 -0.0326991040464093 0.1725536853620499 )
( 0.379180129229668 0.3000077208563773 -0.0020457456269536 0.3066840616253869 -0.0384104797491701 0.1861857050752571 )
( 0.4068488490116033 0.326681053736877 -0.0104820940188124 0.3232840717929003 -0.043611599488154 0.1997628019131697 )
( 0.4398842069859424 0.3555589919191961 -0.0190937672653749 0.3390746687955738 -0.0479673154482129 0.2139058239937832 )
( 0.1693276130503055 0.1056830535334464 0.0349611266054828 0.1936693450189376 0.0216528964456834 0.2379155780821056 )
( 0.176353998946757 0.1070836452058991 0.0383593931777668 0.2020601593114635 0.0232908502683262 0.2279686184148187 )
( 0.1864770222699081 0.1093070537794631 0.0402227377257737 0.210864449197202 0.0223040057161475 0.2079258273721624 )
( 0.1925271975172241 0.1105239207986543 0.0415293506715374 0.216187570899202 0.0208166814273781 0.1832095748942722 )
( 0.1962836891040082 0.1117254258936486 0.0424032153732226 0.2203509967026771 0.0194662161838838 0.1551852223412044 )
( 0.2005216559815204 0.114303720720014 0.0430933662438646 0.224057408233485 0.0173591796413017 0.1294593757239327 )
( 0.206596720093547 0.1193331899479702 0.0435917459756159 0.2270945231749519 0.0142043756434984 0.1095948392826664 )
( 0.2139812838096048 0.1272945751592469 0.0432043591921178 0.2298283099412982 0.0104328056162779 0.0967748355511819 )
( 0.2249635202606371 0.1394249352902639 0.0418449876870246 0.2328210461085619 0.0059942665871128 0.0919221000318564 )
( 0.2387129418829432 0.1560550405590283 0.0386799919702025 0.2389017238261648 0.000523399269754 0.0944981610303126 )
( 0.2559410047721409 0.1766124765839003 0.0338962792237089 0.2482807143619942 -0.0061958976027763 0.1042724071691706 )
( 0.2770670731721123 0.2009059794923764 0.0276347045670904 0.2609955536433725 -0.0140299674213911 0.1191006448360298 )
( 0.2987792480798276 0.2266264726210534 0.0200988321890823 0.2764740931127118 -0.0216157243258206 0.1351253866966079 )
( 0.3220510031843149 0.2534116562784471 0.0120414533787929 0.2938994105741959 -0.0289331645493683 0.1516789575774712 )
( 0.3456700905402523 0.2811507668941144 0.003604944161113 0.3145874869906634 -0.0360756258536745 0.1672352407348889 )
( 0.3698000928570251 0.3092694363974376 -0.0044332038115564 0.3364189053212955 -0.0422489583641249 0.1810008169308372 )
( 0.3977683421793437 0.339049984082067 -0.0124182903226859 0.3578823684217508 -0.0474352410586431 0.1936061811765614 )
( 0.4318896059658113 0.3712480793344671 -0.0206087807417889 0.3782989496046712 -0.0519340272930585 0.2064864877365098 )
( 0.4734528664097317 0.4062971292272297 -0.0292786227902372 0.3975794965092235 -0.0558870545341526 0.21990987947704 )
( 0.1664741623742231 0.1042384487949449 0.0405895927100646 0.1985737712768576 0.0256467848030139 0.2429207091931376 )
( 0.1725057124313456 0.1059067084310063 0.0415426533409298 0.2080545605639165 0.0255688048962593 0.2279412170739795 )
( 0.1810322106507622 0.1083170642856002 0.0406233344864741 0.2184289176297602 0.0229083231546971 0.2013820602679918 )
( 0.1855684921076353 0.1097532706821122 0.0398584860396238 0.2257169131335445 0.0204266285577191 0.1722181466678401 )
( 0.1888623668276273 0.1117112505929785 0.0395008592664789 0.2310705611236229 0.017782687772696 0.1430718786048064 )
( 0.193010498515604 0.1154824721832845 0.0393861395888584 0.2355778079647655 0.0146153086723679 0.1179683714874667 )
( 0.1993202133358174 0.1222159999421389 0.0388595246032604 0.2398422245860464 0.010768795373829 0.0998699076813286 )
( 0.2074563211521806 0.1324230156197538 0.0377261288480372 0.2457231822833361 0.0064253332584539 0.0898277938767333 )
( 0.2191353482280275 0.1473129773449238 0.0356850938780402 0.2531753551947683 0.0009635630617324 0.0882545666089963 )
( 0.2349587733008354 0.1670727334200173 0.0319414268044342 0.2623633987903522 -0.0055216352979633 0.0941487248451567 )
( 0.2550934005069962 0.1915893922834382 0.0265270212800283 0.2754965472364174 -0.0132903545083475 0.107171306212967 )
( 0.2781807795192991 0.2196987829773755 0.0196321339663062 0.292604589866795 -0.0215994243807138 0.1240442835107898 )
( 0.3026029220039328 0.24955706310789 0.0116743612736291 0.3129901416434201 -0.0296476499618283 0.1415586813736971 )
( 0.3290671990723438 0.2811669808543914 0.0031654058999099 0.3365597838166941 -0.0376287398266437 0.1589814032972204 )
( 0.3553389793985904 0.3125888728686419 -0.0049075831400901 0.3622024795818994 -0.0446097044465489 0.1738491530057936 )
( 0.3830914505917113 0.34452546093057 -0.0126453700909668 0.3881855287941138 -0.0504342131966039 0.1866319461750642 )
( 0.4164750467920797 0.3798269271874869 -0.0207144504859702 0.4149252353689065 -0.0556073798774786 0.1988604284947562 )
( 0.4579544058147802 0.418835476050117 -0.0289824985748897 0.4408669069219145 -0.0600454076076528 0.2114378702301147 )