/*--------------------------------*- C++ -*----------------------------------*\
| =========                 |                                                 |
| \\      /  F ield         | OpenFOAM: The Open Source CFD Toolbox           |
|  \\    /   O peration     | Version:  2112                                  |
|   \\  /    A nd           | Website:  www.openfoam.com                      |
|    \\/     M anipulation  |                                                 |
\*---------------------------------------------------------------------------*/
FoamFile
{
    version     2.0;
    format      ascii;
    arch        "LSB;label=32;scalar=64";
    class       volVectorField;
    location    "0.0037";
    object      U_LES;
}
// * * * * * * * * * * * * * * * * * * * * * * * * * * * * * * * * * * * * * // 
 
dimensions      [0 1 -1 0 0 0 0];
 
internalField   nonuniform List<vector> 
13597
(
( 17.098626380113938 1.6100091307049982 0.0730719244338276 )
( 17.093547617944335 1.649884576331344 0.0733727041977481 )
( 17.094541764570653 1.7316721507670982 0.072714425445458 )
( 17.10190450498818 1.8366866817609848 0.0706276282372529 )
( 17.109862620087142 1.9266937972377145 0.0673850266087879 )
( 17.113353081044554 2.001809846921399 0.0624982975238222 )
( 17.12048003534756 2.075912476951883 0.057141500871539 )
( 17.131471281469782 2.154761772545426 0.0512278699172095 )
( 17.145291536096284 2.2343352022964185 0.0441853605112041 )
( 17.16136212035904 2.313772293366051 0.0372512905464446 )
( 17.17897839225523 2.402229855685821 0.029963431117355 )
( 17.201580805268197 2.490966019506691 0.022491527176605 )
( 17.228232862764987 2.5773955591609146 0.0157849881105732 )
( 17.25619203340852 2.6688471773716262 0.0097813864994816 )
( 17.284792601405805 2.762916037619241 0.005526524243635 )
( 17.316938343913147 2.855682315292681 0.0026266556417273 )
( 17.35333897088333 2.9451506171408988 7.234229290182089e-05 )
( 17.391759352412194 3.034867119739521 -0.0008835539043883 )
( 17.431550643423343 3.127241209165277 -0.000508625218069 )
( 16.96566276595443 1.6270618987573853 0.0717976154421152 )
( 16.93920608081179 1.6743799616913329 0.0715894309578451 )
( 16.91034925352504 1.777452291177957 0.0696523849383876 )
( 16.881713497675943 1.8963257450806992 0.064855869712381 )
( 16.85711320077076 1.9887630619802392 0.0595434114469977 )
( 16.83344998495749 2.075796448832968 0.0537895955467789 )
( 16.815777182611814 2.16432260318557 0.0473219262905388 )
( 16.799997019530228 2.2573103037105646 0.0403861386011565 )
( 16.78896580514737 2.3532008929539927 0.0331356874584494 )
( 16.780541358833798 2.449532896743253 0.0263169748726928 )
( 16.773124021151432 2.5568235886219823 0.020449425406577 )
( 16.766706029658803 2.671400954996102 0.0157708603520545 )
( 16.761957224446856 2.7868587421617854 0.0126122952793478 )
( 16.7622687977005 2.905886011387404 0.0105171936100803 )
( 16.765558819539084 3.022844088888595 0.0104362975378126 )
( 16.77274062699827 3.133963397294231 0.0123596331910037 )
( 16.781685107407892 3.236715517796936 0.0149891459877534 )
( 16.791385758057483 3.341194376450929 0.0192334311396727 )
( 16.806809271976846 3.4446667798327297 0.0245652130329455 )
( 16.827937509470512 1.6304602350880215 0.0677917270066524 )
( 16.775920081599804 1.6824017233017277 0.0660194501691474 )
( 16.714948178414478 1.798901366017225 0.0609395513668744 )
( 16.652368630762393 1.926583299623013 0.0528538789011781 )
( 16.598729992288796 2.0225080673645066 0.0452209819425085 )
( 16.553740084634157 2.1206532972797008 0.037414010130775 )
( 16.515378523728447 2.224244768819867 0.0291840939236193 )
( 16.47475289937458 2.3300856654276547 0.0210169297395638 )
( 16.439875048991095 2.443074101119361 0.0133373442804189 )
( 16.40923719623581 2.565996017498182 0.0070534773197343 )
( 16.37943282304124 2.6958847189922985 0.0025437955045096 )
( 16.35163262864205 2.8355414147393363 0.0002915695234858 )
( 16.327502133436678 2.9797667820093743 0.0004253853868144 )
( 16.30837468265231 3.118482212900509 0.0019809443564581 )
( 16.292810426308364 3.245525974216789 0.0049153937264356 )
( 16.28118987430149 3.35891118104484 0.0091380957950647 )
( 16.268415220602094 3.4607549079469564 0.0136020011728459 )
( 16.255530718763243 3.5622861950007545 0.0185931247988258 )
( 16.250960924767238 3.667419080228517 0.0247882868459838 )
( 16.6826899981471 1.6205904031088505 0.0598843721210156 )
( 16.605052936202355 1.6763416545823555 0.0549163737106413 )
( 16.51762797076239 1.799227905044417 0.0470449422278036 )
( 16.42853256403337 1.9333324746796547 0.0365065162776373 )
( 16.34961441922366 2.037742097951286 0.0258219528276161 )
( 16.282534795486324 2.1448675675055893 0.0153710194256727 )
( 16.218377577247136 2.2623718285893526 0.0049506360641155 )
( 16.153960086269027 2.3841150083754408 -0.0047163826703144 )
( 16.099633017389085 2.5135519403491324 -0.0123930084557303 )
( 16.04973122496124 2.654293530061936 -0.0179210932031771 )
( 15.998335067033889 2.804807405418517 -0.0209669757444162 )
( 15.954814937197469 2.961343824156716 -0.0210700801199092 )
( 15.91607157787573 3.11690462493817 -0.0188625678019044 )
( 15.876223932409715 3.265765260485619 -0.0148690060841486 )
( 15.837457989056537 3.3931620999808683 -0.0102123513562307 )
( 15.801103410772347 3.501778105342757 -0.005484351263191 )
( 15.76530080166275 3.5999930436400955 -0.0002956548324491 )
( 15.726340719230642 3.6985937647181393 0.0051973237845595 )
( 15.69059960977929 3.80775767213225 0.01133836687722 )
( 16.536286144328244 1.600089042708966 0.0486439936962114 )
( 16.439823397153074 1.6622396304504994 0.0405433129124998 )
( 16.328435956266944 1.7931720768948716 0.0295316927090316 )
( 16.21507056207485 1.9304462181833024 0.0160740648636234 )
( 16.117210358756694 2.0417905335045634 0.0021809699617998 )
( 16.0293465217317 2.157544539828279 -0.0104767648197483 )
( 15.940715375579847 2.2861907212468666 -0.0221546376530159 )
( 15.856454633379736 2.4207045871947788 -0.0320242716862551 )
( 15.781583279152509 2.559226530288349 -0.0381638486610662 )
( 15.707566408177096 2.7089812921798755 -0.0411989097653308 )
( 15.63142617277378 2.873256801372482 -0.0413729768506881 )
( 15.560344279136608 3.0405930232039875 -0.0386779663608119 )
( 15.49166971617692 3.2014938364464367 -0.0334626343539979 )
( 15.420805260546707 3.3507941339341523 -0.0267435003935516 )
( 15.34992674116282 3.4721578287567354 -0.0205242108095467 )
( 15.280283120977732 3.580008919732189 -0.0146710182662404 )
( 15.213187618022411 3.6823832539430255 -0.0081588159027487 )
( 15.145901216719304 3.784418489936684 -0.0010798653379313 )
( 15.078111167314272 3.8990186477904047 0.0066635816610765 )
( 16.39461185440865 1.569710637512571 0.0346737279084638 )
( 16.280613606704442 1.6394257174838571 0.0233865150016259 )
( 16.144812031996718 1.781601331829003 0.0079405613144692 )
( 16.013096587426226 1.9226439751597213 -0.0083375435690076 )
( 15.900270815071964 2.039446061131637 -0.0233187772581191 )
( 15.794845728088324 2.1631922570661093 -0.0362742785625118 )
( 15.689237877628504 2.2961405020257506 -0.0466300607625942 )
( 15.58353971962887 2.435047060596625 -0.0540751640626866 )
( 15.476671468163024 2.5792341808976817 -0.056989872038302 )
( 15.369576029424934 2.740077045923132 -0.056399154166025 )
( 15.265867452681272 2.9091219218129862 -0.0530110793661026 )
( 15.15979638712314 3.077081144326965 -0.0464795059879086 )
( 15.056984870620584 3.2401774655951283 -0.0377764334088678 )
( 14.95714807081708 3.3857206149234256 -0.0282367715614622 )
( 14.85567237309608 3.5052007187697902 -0.0195643385391134 )
( 14.760791493494937 3.610140852896042 -0.0116938991244786 )
( 14.667722224097384 3.711081993292469 -0.0037299163409081 )
( 14.574173287854316 3.813316071582775 0.0046799767680523 )
( 14.480612107415562 3.929887958137981 0.0137944373592685 )
( 16.25247467704381 1.5327849393447075 0.0187928110255508 )
( 16.12239256480329 1.6115628210120614 0.0038386307569258 )
( 15.969177974698606 1.7626028022728004 -0.0146377513593576 )
( 15.823168371908704 1.905582527835636 -0.0326719508646494 )
( 15.694364833821208 2.025360218746458 -0.047168583606877 )
( 15.568016168769612 2.151377589901665 -0.0582775542297777 )
( 15.442121537263706 2.2875136404921865 -0.0654899939615697 )
( 15.312388409958327 2.4294720162942003 -0.0688920060379074 )
( 15.174514970143406 2.5746245333381403 -0.0676581141433652 )
( 15.041918539334334 2.7370894625786573 -0.062092163858552 )
( 14.908589491618107 2.9083374584262174 -0.0541639772197933 )
( 14.76889559640306 3.078263731711562 -0.0438319037272745 )
( 14.636838183896282 3.236897279266892 -0.0324654403507419 )
( 14.510037173404712 3.376638299606721 -0.0209026452687552 )
( 14.383573419331004 3.497534806274629 -0.0098162452400889 )
( 14.264422002516046 3.5980073432978874 -0.0003311243289427 )
( 14.149213322455212 3.694946561362798 0.0086567946132412 )
( 14.031588842259524 3.800109458035274 0.0179272180706042 )
( 13.914214198008027 3.918789322131647 0.0273705881946042 )
( 16.119256802845783 1.4938247863469192 0.0020279313408535 )
( 15.97428448879992 1.577070620749007 -0.0156404550320916 )
( 15.805559874867772 1.732138591635269 -0.0357699313818236 )
( 15.645175901624963 1.876111513914453 -0.053664416227325 )
( 15.497797058740746 1.998221259501164 -0.0667111271613689 )
( 15.3498089477276 2.126818566645047 -0.0749208880733658 )
( 15.1990078132252 2.2648098939359658 -0.0774203789267031 )
( 15.0469012963898 2.4036879593780465 -0.0758307752737542 )
( 14.883264235836934 2.5466775076111343 -0.0708636253540662 )
( 14.724061074429036 2.711017042549025 -0.0603638164421792 )
( 14.560388912782791 2.8827479826933304 -0.0475551661441731 )
( 14.3947877182843 3.053612037983076 -0.0341763188539389 )
( 14.237476062367993 3.2094517442548005 -0.0206296025797294 )
( 14.082586236199498 3.3399758760384355 -0.0080881753923857 )
( 13.93842538377431 3.452223124550616 0.0031147979218179 )
( 13.797787106413102 3.550893012623828 0.0130024470151805 )
( 13.659993925633549 3.6496032996938177 0.0226995536218901 )
( 13.521522024285211 3.759084639072661 0.0323461202662946 )
( 13.383503704610115 3.881654755738574 0.041932058595786 )
( 15.99476556351853 1.4478568228572035 -0.015649373209645 )
( 15.835187658608945 1.53153077487726 -0.0352049597130127 )
( 15.651037766581902 1.6895716695814122 -0.0554491850791054 )
( 15.477393390772008 1.8333441023850543 -0.0708280030614907 )
( 15.308901877674137 1.9586575510532944 -0.0810916627353739 )
( 15.143069241176812 2.0855670745484405 -0.0856348258665963 )
( 14.973095623490302 2.2183060137551966 -0.0832483232587655 )
( 14.799273039079562 2.359413360638872 -0.0766069107679079 )
( 14.61569524928226 2.505275706415889 -0.0674170516647778 )
( 14.423206424269004 2.66520112755059 -0.0536801339656777 )
( 14.232034779574754 2.8354323103685624 -0.037776540642147 )
( 14.046909941142104 3.00270820221946 -0.0221553097075187 )
( 13.862015349460409 3.154858289729144 -0.0068505708626287 )
( 13.684360136876943 3.2815838386621 0.0061332228771257 )
( 13.523733029961548 3.387436510435946 0.016655757060897 )
( 13.362861946738098 3.4864322026699384 0.0266523491244905 )
( 13.203317891390544 3.5850568739324755 0.0368606770130836 )
( 13.043498307125654 3.695217810579439 0.0470952311320486 )
( 12.881407389513477 3.821574249588095 0.0571768638357577 )
( 15.873110580136252 1.4001849428181117 -0.0340811165030699 )
( 15.70064515372064 1.4906197912487449 -0.0540656014976237 )
( 15.504007242074346 1.6492269389706478 -0.0724814958675167 )
( 15.316458567374898 1.785454056360659 -0.0848684642690529 )
( 15.132233501117032 1.910814924039085 -0.0907402624339318 )
( 14.950306871973655 2.0307868410370307 -0.0903609604080436 )
( 14.759317938610586 2.154564484833023 -0.0846606534127772 )
( 14.558744217442056 2.293755175600769 -0.0738454980553866 )
( 14.357373119673412 2.437655820082361 -0.0598293586294033 )
( 14.143948480609426 2.5954687373361267 -0.0438974670533217 )
( 13.929942561203426 2.768571799771749 -0.0266791816947606 )
( 13.723811563509647 2.935592382843738 -0.0097120262928893 )
( 13.518811219853784 3.080632740511535 0.0061112824969379 )
( 13.324999170549937 3.204896533204915 0.0192304214517994 )
( 13.142200429855926 3.30848874027567 0.0305266574784034 )
( 12.958533940132476 3.4034235519324785 0.041267324427387 )
( 12.773253399958016 3.4995530217534023 0.0516756021850799 )
( 12.588764084153814 3.609144518191406 0.0615036028798551 )
( 12.402717336340428 3.740652886089026 0.0701283601776078 )
( 15.762004661606802 1.354023156677662 -0.0516521608444982 )
( 15.581272467364943 1.450385914498091 -0.0699236813104325 )
( 15.366612052917496 1.6046824718247774 -0.0861059283465003 )
( 15.167956759129396 1.7310456254294193 -0.0954242928231413 )
( 14.971585029453196 1.8498764805196568 -0.0964162816069768 )
( 14.769889876331712 1.9648926115772032 -0.0911410459544368 )
( 14.55946024013678 2.080471895875217 -0.0822668368198074 )
( 14.342205759234298 2.210431070328792 -0.0685029095442431 )
( 14.120152364894656 2.3556546680104358 -0.0514656677975604 )
( 13.890827077482886 2.514337591433816 -0.0338949769363002 )
( 13.65680947102702 2.6841949698480803 -0.0156712739381278 )
( 13.423208922375442 2.853000410692177 0.0029092721237908 )
( 13.203923740945967 2.9930161998516933 0.0188840933102549 )
( 12.993712300025882 3.113893843898367 0.0322248326402655 )
( 12.783680520628518 3.2157885693871373 0.0445411789865563 )
( 12.572800243781092 3.305631837924935 0.0548982141058862 )
( 12.362072129104362 3.4007396120718587 0.0638147394671359 )
( 12.156346750112377 3.5125365226416867 0.071275884250367 )
( 11.945967503526878 3.6501742215622506 0.0773090966235795 )
( 15.658460225390272 1.3042071831868232 -0.0683088325803203 )
( 15.4660899362716 1.402206979697818 -0.0851746636439499 )
( 15.235901271972065 1.5526147142492346 -0.0971609317053912 )
( 15.028753266416688 1.6688856446670066 -0.1016143464271966 )
( 14.819414702282325 1.7766069066883363 -0.0984190053139002 )
( 14.60019671613525 1.8878740592807264 -0.089796786264965 )
( 14.378486356699456 2.005259498197756 -0.0770763290915811 )
( 14.146312640304116 2.1322883831203043 -0.0604794664819032 )
( 13.904996788424366 2.275741120612304 -0.0419166738143831 )
( 13.657190136119976 2.4296543188434505 -0.0230667303883497 )
( 13.404320177286593 2.591983901276735 -0.0038232313683573 )
( 13.149163806584696 2.752827633210364 0.0154364856439857 )
( 12.905994707263163 2.892920816224509 0.0314374062601241 )
( 12.670383871118965 3.0164793377721693 0.0445583955021084 )
( 12.434115551833155 3.1142938663960877 0.0559648216974923 )
( 12.202805219653005 3.197693616795042 0.0644365873713853 )
( 11.97473573038147 3.292318952658805 0.0711056561643185 )
( 11.746575241622766 3.412118459200656 0.0770212719923746 )
( 11.510663378412644 3.558604069817868 0.0834750509484458 )
( 15.560136577337126 1.245283561807418 -0.0848826310680298 )
( 15.357648528110404 1.3435283118613677 -0.0994657119652581 )
( 15.120121587936612 1.4911848359967912 -0.1062757167510329 )
( 14.900286563009413 1.603069956240298 -0.1054242652881196 )
( 14.679293227401573 1.7086927291482752 -0.0983432057055075 )
( 14.448339573076504 1.816818725238549 -0.0863532323107705 )
( 14.213358322416047 1.9307558826337976 -0.0702794295135808 )
( 13.96374703080141 2.0504895094184743 -0.0518315758730645 )
( 13.704575917076935 2.1849421267197657 -0.032331393301392 )
( 13.440897944623732 2.338200005187695 -0.0120817626633481 )
( 13.165777566822191 2.50206241618452 0.0082963415078439 )
( 12.89109205890731 2.655458183844264 0.0266947506534499 )
( 12.620995000825978 2.7912102465316164 0.0417929699501313 )
( 12.354946377280976 2.9096469595644985 0.0541233687927241 )
( 12.102075135645627 2.9984352139121637 0.0633780633872489 )
( 11.858458209372362 3.081283881514067 0.070558999498715 )
( 11.61017500910937 3.1798990374032656 0.077258035388755 )
( 11.354393275408317 3.304435061775324 0.0840083505229343 )
( 11.08454940627702 3.46467958809504 0.0927693235959302 )
( 15.470497065433616 1.1778640939771194 -0.1001929386673667 )
( 15.26530502299109 1.277332881037297 -0.1102766709634618 )
( 15.017513187629731 1.4229181472465773 -0.1123851790137117 )
( 14.785408291669691 1.5312694206319977 -0.1072808021745167 )
( 14.552391563272572 1.6346254820581785 -0.0962026755548525 )
( 14.314209853255743 1.7356803889717327 -0.0808722076314609 )
( 14.0660091232211 1.8432659209149331 -0.0631655118032777 )
( 13.806384707475749 1.959366813606223 -0.0442582994013588 )
( 13.529841173348494 2.0868227383472475 -0.0238148547606905 )
( 13.243524943983209 2.236873221754502 -0.0024003286269146 )
( 12.94530959909554 2.399823682575162 0.0181301707826982 )
( 12.6437776260873 2.5542152216811798 0.035853552436621 )
( 12.350169928464885 2.68816811539361 0.0500753117692576 )
( 12.067592400056355 2.7943312469627024 0.0608020790768271 )
( 11.798610461198884 2.876296557097617 0.069062892006359 )
( 11.531241011386104 2.963691366532441 0.0766892789608846 )
( 11.2562930488467 3.072370284346691 0.0844652441368321 )
( 10.96793001561913 3.197581430419814 0.0929659128350149 )
( 10.65521984090358 3.363080745612658 0.1031102292872869 )
( 15.39197631219488 1.1114467881094412 -0.1129050358352595 )
( 15.178847360627785 1.212151404979658 -0.1178400952193674 )
( 14.912416791036383 1.355505296555816 -0.1154076826030713 )
( 14.673343570323526 1.4542620867510874 -0.1065839916041176 )
( 14.434796297760313 1.5502321926124043 -0.0921010160359842 )
( 14.190332952624487 1.6464604974323087 -0.0749674061056323 )
( 13.929789143460344 1.747763455775936 -0.0560646767397525 )
( 13.654496790071956 1.862202538521188 -0.0357397968352481 )
( 13.36522730423517 1.9854309570681008 -0.013831154403057 )
( 13.059211111168102 2.1272127319185383 0.0076929271288441 )
( 12.734657548255422 2.28751293963774 0.0271158326530848 )
( 12.405653522979584 2.438441897323888 0.0437706570215658 )
( 12.087978589109218 2.5706273508623583 0.0571753781697174 )
( 11.79379145291414 2.6708957008057315 0.066790232302444 )
( 11.509559125291965 2.750431166979324 0.075021267029867 )
( 11.2169677621768 2.8396947604440843 0.0835144978597599 )
( 10.907633690434333 2.9517725115028424 0.0925480805219337 )
( 10.577312520183687 3.0880149939539643 0.1023839888205873 )
( 10.229181131549744 3.2724320837056777 0.1122175682989084 )
( 15.32184489319356 1.0476954656690936 -0.1230342807633951 )
( 15.10009750805771 1.146695767546517 -0.1238518219067591 )
( 14.821415728560396 1.2841959512820695 -0.1166731095900725 )
( 14.575395531603291 1.3722651293677754 -0.1046254233702756 )
( 14.331442951860298 1.4575926750782504 -0.0878488654034485 )
( 14.077259352247603 1.5562730342472766 -0.068838107336075 )
( 13.806260051464632 1.6499936188634463 -0.0488102485310866 )
( 13.513606414575094 1.7530305887374082 -0.0268772150517836 )
( 13.206680347814402 1.87782841299572 -0.0041099615086957 )
( 12.882337733926809 2.012848467732199 0.0163788530210656 )
( 12.527671729238415 2.1724496661437604 0.0351437571103365 )
( 12.169711283999092 2.3235398374979046 0.0510637857656238 )
( 11.841099736518531 2.4451616543973262 0.0632571418122908 )
( 11.538490834711002 2.540027588408494 0.0732065507897909 )
( 11.235031079648747 2.6216314244170795 0.0818548483364527 )
( 10.913648051907204 2.712812503692579 0.090804070169549 )
( 10.564695226456664 2.8260562744255293 0.1019237137105121 )
( 10.191017953929626 2.9776911283945027 0.111338129840079 )
( 9.8260779955984 3.200004123259377 0.1183189168243419 )
( 15.260729220284553 0.9843167030209335 -0.1300248698658536 )
( 15.027910616544634 1.076708132041712 -0.1278723288881598 )
( 14.74148139296756 1.2106928973229625 -0.116152638320333 )
( 14.493893605137895 1.2932047418783903 -0.1017779273771856 )
( 14.241500095610578 1.3718978185712942 -0.0833034670554156 )
( 13.972484114415009 1.4643488420131898 -0.0618194576639743 )
( 13.689297794412662 1.5479801635284307 -0.0408402397363222 )
( 13.389302871538936 1.6465677915235624 -0.0190258100212473 )
( 13.063177001895378 1.7700550328379008 0.0034231645165132 )
( 12.714058181487331 1.8948240300784436 0.0232702263257057 )
( 12.345913537543998 2.046490196616721 0.0413059769567015 )
( 11.966393637880971 2.2068177991873847 0.0570932477521734 )
( 11.622870676521822 2.322889236320588 0.0695527432239593 )
( 11.302274415422152 2.4073589853238264 0.0798598910696989 )
( 10.968838978825168 2.4906741965791994 0.0882839018000287 )
( 10.608149434795576 2.5791354535146502 0.09774349957249 )
( 10.22237700140946 2.6999640579208264 0.1079971274634661 )
( 9.827950157314726 2.8739824445077407 0.1148004438770145 )
( 9.46418578593726 3.1429006580712526 0.120141356184269 )
( 15.203042936003134 0.9198556061066624 -0.1353331915295959 )
( 14.963363434283298 1.0057741450350013 -0.1295282173318998 )
( 14.67086083237257 1.132225488656608 -0.1144054012447584 )
( 14.422326919575058 1.2092163220726315 -0.0984088579534429 )
( 14.162007190215288 1.2875739080913593 -0.0787546540741984 )
( 13.879648331177393 1.372790067565794 -0.0557388318346537 )
( 13.588291998161818 1.4433973384903382 -0.0341544187654525 )
( 13.274803390912004 1.5406913723451012 -0.0122283073641613 )
( 12.92758952711828 1.662778809272722 0.0098527403767015 )
( 12.558291195663047 1.7864913715230135 0.0296445839678421 )
( 12.170870790005813 1.9246149273904345 0.0483172724302567 )
( 11.777197393983473 2.067276199415282 0.064174334625064 )
( 11.41694693437218 2.183394209458277 0.0763518942601192 )
( 11.067627385008413 2.271049803440388 0.0862310584677691 )
( 10.702697686134629 2.3452132330883426 0.0941196629078669 )
( 10.311466731421456 2.433771946778013 0.1025201143888888 )
( 9.89664640582693 2.564381136626466 0.1107574340222881 )
( 9.498011610622893 2.7758316921961645 0.1149994418426646 )
( 9.11573461971757 3.109700160748436 0.1175125490906787 )
( 15.153654931091426 0.8526631726581939 -0.1400643743211866 )
( 14.909311696988867 0.9316849520407624 -0.1305415009014237 )
( 14.6080567611076 1.0465819126065012 -0.1119847469662686 )
( 14.35679068102868 1.122129417606637 -0.0947491341028241 )
( 14.088823270747854 1.195349275397636 -0.074399619111897 )
( 13.792878308363171 1.2757385275499245 -0.0498196146502291 )
( 13.49983686771172 1.3460734430673964 -0.027743500417233 )
( 13.17293238692404 1.4309518680015791 -0.0058325698450172 )
( 12.803030098978075 1.5470256273074463 0.0161756734532989 )
( 12.41145223601536 1.673170015441641 0.0360455793965168 )
( 11.997236816027828 1.8066838156466385 0.054972899605928 )
( 11.596897338430091 1.9331476601166235 0.0700496021119507 )
( 11.215670666145416 2.0375665150576365 0.0815827148555605 )
( 10.833870112692072 2.124485779929911 0.0918137169573488 )
( 10.446911185879667 2.199610970085861 0.1002391832977133 )
( 10.03269939737162 2.2967798136990965 0.1075755414234487 )
( 9.59641901961696 2.4438304795027763 0.1135734845642666 )
( 9.183770817009028 2.6894240921459787 0.1159059730304457 )
( 8.705072023091816 3.047159948614476 0.1122510209662524 )
( 15.114782387327416 0.784958896600506 -0.1424738658302182 )
( 14.861431810542411 0.852536930967146 -0.1302336236971426 )
( 14.552175130530689 0.9590008571923748 -0.1093673157935194 )
( 14.295492876602088 1.0320951704302284 -0.09079174188238 )
( 14.020363308459686 1.1024971986349472 -0.0696039635254896 )
( 13.71360487602876 1.1828792858892847 -0.0442434159307847 )
( 13.40846660023703 1.249542868786908 -0.0210505743252687 )
( 13.075367219622413 1.3229811275296115 0.000805523824294 )
( 12.694218530276832 1.4279574540113569 0.0221785149451732 )
( 12.280348855763686 1.5442060193064835 0.0417047918296354 )
( 11.844015410570847 1.6787381745070198 0.0592216676778828 )
( 11.4279679713474 1.805664457784891 0.0729648397337784 )
( 11.021687880651676 1.897727717177626 0.0853461503683839 )
( 10.617157260930968 1.973680552418133 0.0956822013024254 )
( 10.198408773891618 2.060233248894926 0.1053871457566752 )
( 9.762625562429196 2.164656056769601 0.1132292929700798 )
( 9.317502376100247 2.329437370117246 0.1155184634691964 )
( 8.835106724074846 2.6043851418500794 0.1153463894499237 )
( 8.192902757702218 2.92474578751302 0.1058838281448753 )
( 15.078962185040176 0.7121841797158832 -0.1438595410130632 )
( 14.821962614222338 0.7771073034001451 -0.1298954224061471 )
( 14.510100622549473 0.8749500578391295 -0.107976197093542 )
( 14.24426642398226 0.9361789317239066 -0.0876619840822463 )
( 13.961094838917749 1.0062580807396757 -0.0644311619527093 )
( 13.64678298854088 1.089176544082868 -0.0388968830520215 )
( 13.327899916823789 1.1474723484169584 -0.0156771280176738 )
( 12.98858692472724 1.2123586073511785 0.0062114140533864 )
( 12.588225241800142 1.3116083358134414 0.0280038802212581 )
( 12.156016863275903 1.4213157560200032 0.0475892299027506 )
( 11.703036943989591 1.5467569990028012 0.0635992325538242 )
( 11.25712095719605 1.6681445778036752 0.0769783200595124 )
( 10.835653801309704 1.762420945471829 0.0898268876663835 )
( 10.423186331887369 1.8340404430919937 0.098397799336316 )
( 9.975741016763235 1.920754865723569 0.1069590708556083 )
( 9.508153253234624 2.030560867330996 0.1127072351953843 )
( 9.04538663212692 2.209401537386744 0.1145372188824855 )
( 8.464381822926176 2.495800848318227 0.1119553599105852 )
( 7.584194457755803 2.733255940960417 0.0963500835763755 )
( 15.047817072851736 0.637545779715824 -0.1454169787901053 )
( 14.788279061020804 0.7028141861866095 -0.1292109738100125 )
( 14.472032245077983 0.7964152428539065 -0.1058721677651279 )
( 14.200913067939464 0.8514734668732041 -0.0847294732156682 )
( 13.907481965313806 0.9152379361759224 -0.0594105220867481 )
( 13.580589516345713 0.9834045782228356 -0.0329736130412345 )
( 13.251649054158634 1.0380051961715389 -0.0103363766205371 )
( 12.905856409634618 1.098512840308936 0.0106044359010972 )
( 12.479313924931354 1.190709558195423 0.0334726295946396 )
( 12.028308106727572 1.3014510992676431 0.0537014340761113 )
( 11.571295654689346 1.4177173275852055 0.067946109757216 )
( 11.111763598663485 1.5357751586900352 0.0812590530995934 )
( 10.672556376239235 1.6339244084706115 0.0939580443525489 )
( 10.232206554269258 1.6970047018482377 0.1021343090239845 )
( 9.77137036136989 1.7745676898419365 0.108862528193787 )
( 9.282038392707411 1.8892217847095685 0.1119226151750361 )
( 8.751229789856732 2.085446423579825 0.111429052318086 )
( 8.099924888994458 2.374648488866861 0.10413731959658 )
( 6.840338010302107 2.4476862739284755 0.0837483983201399 )
( 15.019843295720197 0.5702592869212256 -0.1457955043308172 )
( 14.754337822546368 0.629043906459725 -0.1271361478531928 )
( 14.434404028067464 0.7171998343729175 -0.1025185426207244 )
( 14.161643248939695 0.7711470595335876 -0.0805454283926227 )
( 13.859070000343998 0.8260397009320573 -0.05465922909881 )
( 13.526214033557055 0.8807801435032716 -0.0290325525668876 )
( 13.186903212691988 0.9376339947944496 -0.0060714861165676 )
( 12.82242151808624 1.0008129043961147 0.0158526240617475 )
( 12.37685578064885 1.078934708076989 0.0387187424340201 )
( 11.90358617469218 1.1828663199795164 0.0587080495576327 )
( 11.43994019006712 1.2893205306996942 0.07252020628741 )
( 10.981620715265178 1.3908350281933668 0.0842326256924933 )
( 10.526045387069956 1.4812954909237537 0.0956452190266347 )
( 10.055063334295552 1.5462086068803529 0.1051566456108751 )
( 9.56917378332798 1.6182721385771512 0.1132312439611515 )
( 9.057302137188088 1.7352106407864665 0.1156524719142706 )
( 8.444354812880167 1.9413822957217568 0.1108496183843374 )
( 7.608148716978722 2.1778628510550817 0.0989556312852307 )
( 6.123214153408522 2.1269034413612986 0.0762436609729542 )
( 14.9986810786003 0.5017458303158374 -0.1449632678189516 )
( 14.727062046652923 0.5571318325680922 -0.1248996135530891 )
( 14.398732237360065 0.6390409143324283 -0.099238436550126 )
( 14.123659377808815 0.6858031739533915 -0.0763938055914552 )
( 13.81494448501606 0.7388876889804906 -0.0505985507341745 )
( 13.480539822083577 0.7956724671849299 -0.0255306715863033 )
( 13.136942743793837 0.8494381317920998 -0.0020561098009715 )
( 12.750964467138909 0.9042964495962196 0.0213657185753924 )
( 12.293544160130786 0.9761411307059704 0.0441675632212082 )
( 11.81150266554305 1.0722016641495486 0.0630602339588809 )
( 11.329722398509672 1.1687570822791402 0.076789224904915 )
( 10.848401795719662 1.2499175164317162 0.0876690966708747 )
( 10.374022642917476 1.3226768282020438 0.0971884010312907 )
( 9.885053030573014 1.3853380606592725 0.1058890894149634 )
( 9.378786758588236 1.4595358936783036 0.1134697795397718 )
( 8.824769298509052 1.5927391965906692 0.114175428197532 )
( 8.150479349351743 1.7913183620938615 0.1098397375283013 )
( 7.083123751574003 1.921208346235114 0.0956800995716794 )
( 5.509536801767532 1.818416710598663 0.0693478521636125 )
( 14.98279882999072 0.4303845493371502 -0.1440287217554382 )
( 14.70937650108794 0.4851741901220737 -0.1236438541551232 )
( 14.37174873608372 0.5633199474589348 -0.0969923090520569 )
( 14.089495881406767 0.6025288007466583 -0.0730060102611338 )
( 13.773818511151504 0.649450062672587 -0.0464825795021756 )
( 13.434832591256392 0.7042936206805941 -0.0201526022432517 )
( 13.08648866171706 0.7440153690740308 0.0030646317689355 )
( 12.688397945145953 0.7938144035477143 0.0262692991164462 )
( 12.227814504587394 0.8741829296418058 0.0485137465776031 )
( 11.738201208688183 0.9623416498885956 0.0659408896055731 )
( 11.2323202447814 1.0518410033014929 0.0790726439644341 )
( 10.728251250689134 1.1155542910743252 0.0901428836831251 )
( 10.235953790074795 1.1722111816512522 0.0986254676167741 )
( 9.718173483039116 1.2258464141041336 0.1063270668607053 )
( 9.194223741180808 1.2982618241936577 0.1103099624824582 )
( 8.580525224153394 1.4391332093334597 0.108392446826449 )
( 7.831919104285349 1.614825085236436 0.1047058672446037 )
( 6.647542974727593 1.6665123258788914 0.0905991066368157 )
( 4.949065551956413 1.5094662001694532 0.0634013545279734 )
( 14.968527902181233 0.3687705261808253 -0.1432701319909009 )
( 14.692829301962757 0.4171780454203579 -0.1218512925117394 )
( 14.350344919421335 0.4864240293882884 -0.0944805549374001 )
( 14.060757305509664 0.5222879429185213 -0.0699432310981565 )
( 13.739802564643716 0.5606336567884335 -0.0428843089244194 )