/*--------------------------------*- C++ -*----------------------------------*\
| =========                 |                                                 |
| \\      /  F ield         | OpenFOAM: The Open Source CFD Toolbox           |
|  \\    /   O peration     | Version:  2112                                  |
|   \\  /    A nd           | Website:  www.openfoam.com                      |
|    \\/     M anipulation  |                                                 |
\*---------------------------------------------------------------------------*/
FoamFile
{
    version     2.0;
    format      ascii;
    arch        "LSB;label=32;scalar=64";
    class       volScalarField;
    location    "0.0016";
    object      k_LES;
}
// * * * * * * * * * * * * * * * * * * * * * * * * * * * * * * * * * * * * * // 
 
dimensions      [0 2 -2 0 0 0 0];
 
internalField   nonuniform List<scalar> 
13597
(
0.1312472130097378
0.1326396211981677
0.1369042229611144
0.147153893628585
0.1590555544623626
0.1693604835045693
0.1803910015417567
0.1930457803027559
0.2059503433640628
0.2181924224450196
0.2311167371970489
0.2440506661772524
0.2550841612086265
0.2645358948201569
0.2723571487574385
0.278040997335147
0.2807121053997161
0.280137932577353
0.2782150567459132
0.1347980113787595
0.136392808249057
0.1410359973295346
0.1536472908758554
0.1661051229899397
0.1779991138339442
0.1910862003203378
0.2056511570562368
0.220188121824282
0.2328738229827861
0.2449944293042626
0.2553572970963739
0.2619894387230648
0.266102498107622
0.2674576312797425
0.2662827392562041
0.2627691010733463
0.2569809377906814
0.2511205052026748
0.1385675364951699
0.139596982504162
0.1439742718515506
0.1559305386847064
0.1671483540408799
0.1790296371444671
0.1907574832592128
0.2014722509220402
0.2111107532940742
0.2192167709080274
0.2243091386828284
0.2263376355945645
0.2252553227903463
0.2215347340864464
0.2163060094569191
0.2103180098495727
0.2035101453624863
0.1959058597928588
0.1890561636696845
0.139719760643688
0.1404913993069732
0.1437166113229036
0.1534864670743116
0.1626296338739577
0.1714083610616066
0.1787540115791509
0.1842876466106467
0.1880736766860316
0.1893278230716199
0.186300268348721
0.1816639365021203
0.1756308061299615
0.1685709328038766
0.1622330132221233
0.1567439599679996
0.1518943108806681
0.1474140090872711
0.143969697571557
0.1404143792711777
0.1398272435449623
0.1425769103951656
0.1507352114242852
0.1572918097626262
0.1622741713717766
0.164905700329441
0.1651489042719976
0.1626867660564703
0.1573060804781887
0.150504719002412
0.1443732646804699
0.1388526863624404
0.1346409226280108
0.1319723839918824
0.1306510483038638
0.1305079690112452
0.1313396679575054
0.1332695129516804
0.1412512635710922
0.1398156372603664
0.1427819566836971
0.1497114513448262
0.1534074087993867
0.1546829406295765
0.1528118779907104
0.1485975336271584
0.1422643378968003
0.1352001368341762
0.1297752264179368
0.1257063416188977
0.1245139175695847
0.1256772964121469
0.1278821519972852
0.1312295695364151
0.1354727613844075
0.1402149936248535
0.1457945411885931
0.143929538956237
0.1439146127634011
0.1464055889857999
0.1501121308284484
0.1507360671105373
0.1484774119441596
0.1434706366797731
0.1370495192403315
0.1306870897413705
0.1257692088548895
0.1232218221193684
0.1233417522548721
0.126890574012471
0.1322443119136604
0.1383737972827138
0.144935496638881
0.1514888029796722
0.1582976970225871
0.1653275550442755
0.1503574182883718
0.1515752424245496
0.1522244644125542
0.1525310082875118
0.1498656498295849
0.1450181162561545
0.1385048999308584
0.1318923299340347
0.1270763251963747
0.1246965225667407
0.1257895585733978
0.1306357212735093
0.1375887275357866
0.1457457490390751
0.1539043646640037
0.1619016388177349
0.1695374235943159
0.1771465141839104
0.1843286629057064
0.1599570057037112
0.160947414626057
0.1589350694313801
0.1563594464081945
0.1512934717238434
0.1444483113914935
0.1370383263479353
0.1314194962579038
0.1284961490205689
0.1292095706558625
0.1338622177768586
0.1417573906009819
0.1507046694596563
0.160605371700633
0.1700348618123252
0.1786376305300593
0.1864523412704662
0.1939130789847439
0.2009264615280766
0.1722259829877331
0.171385913261227
0.1656931773097668
0.1604948587216609
0.1530211246216882
0.1450095841938614
0.1380766456488086
0.1337307386524076
0.1331540945306353
0.1366391138794386
0.143803634213444
0.1534116299817598
0.1640871005956048
0.1749467948234338
0.1846259643814906
0.1933960355155618
0.2014561085382692
0.2087662823688851
0.2155671569347608
0.1845946881717515
0.1803247229271201
0.1719739279051914
0.1642258932676219
0.1542830114447045
0.1461448975415052
0.1407059809573396
0.1379515919803963
0.1393954128802351
0.1449333748115416
0.153754107448507
0.1649617440187687
0.1764356697674679
0.1875262663291839
0.1975349390543501
0.2066469384138739
0.2150758361797735
0.2224774704189949
0.229316801114313
0.1960408272441857
0.1888257569323786
0.1769277792024776
0.1666523570212434
0.1561319468542317
0.1477711360391498
0.1430740874847309
0.1422505024034517
0.1454919943256137
0.1526750383794104
0.1630463251367296
0.1755257629025927
0.1876044425281987
0.1991491097486969
0.2098938439023608
0.2195080513072332
0.2279415105516366
0.2356638279970717
0.2428960766211773
0.2068421123457421
0.1962137910472249
0.1805689407651905
0.1683255715438973
0.1575416555929259
0.1494049362169347
0.1455595007776212
0.1463877634426511
0.1516234672723119
0.1603602253369885
0.1720739792013266
0.1854651688092576
0.198676153309028
0.2112414568645498
0.2221288179309941
0.2316741671827772
0.2407649578973321
0.2493735618010806
0.2570888235624691
0.2164725905688323
0.2008534358141641
0.1827440457605774
0.1696042461747789
0.1582115177078529
0.1509579719395582
0.1483975670348225
0.1504704338330312
0.1573384467235691
0.1678812928839128
0.1807264168732964
0.1952867202648447
0.2095771857241762
0.2225183434465328
0.23367025684281
0.243960905943848
0.2541231704793162
0.263663089553981
0.2723385216576928
0.2238081098395825
0.2044451906022849
0.1836938967376749
0.1698138570380305
0.1589145194419212
0.1524794444925054
0.1510123834377332
0.1545459664267264
0.1628216560578612
0.1746539526741708
0.1890667481451352
0.2049802563359416
0.2201424585053527
0.2334571689453245
0.2454617203207364
0.2568302830409321
0.2679587268598006
0.2786180148311341
0.2900792677514528
0.2279880139861492
0.2064994496281256
0.1839885835242761
0.1697441892465003
0.1600713589576217
0.1540973841887903
0.1537824943061412
0.1589031016731942
0.1687339020016771
0.1815499291585083
0.1976619076076662
0.2154035961846304
0.2309610657366214
0.2444459744856863
0.2574362920280377
0.269792791721148
0.2821660728394625
0.2956919153641092
0.3128726097359873
0.230332651562107
0.2066718654603016
0.1834958680136915
0.1694484702400395
0.1602138299178182
0.1555000513967724
0.1566884398681212
0.1631280429910312
0.1742310890717847
0.1886095632011735
0.2056097420151201
0.2244910957843202
0.2408465928761983
0.2548167928610059
0.2690479296263385
0.2829764478636086
0.297720237571876
0.3168031713113972
0.3400225609016072
0.231733127791703
0.2066708802511239
0.1832163894109463
0.1691873847320003
0.160235049286843
0.1570434000564388
0.1595246152359585
0.1667371163080859
0.1794755113187437
0.1956847169149614
0.2135744706675288
0.2328947606208654
0.2501822113652068
0.2656503732705573
0.281244284621125
0.2968635404150836
0.3161212525083759
0.3416985433738799
0.3635154460724023
0.2316634489042124
0.2057113195682313
0.1823988389525451
0.1690159541443707
0.1607829053008582
0.1585148362435688
0.1620063899490818
0.1704403364664327
0.1849071977477745
0.2028933303796872
0.2226066190717687
0.2418833006219821
0.2599132700040463
0.2771687046668566
0.2939724682992981
0.3127365235079199
0.3382262665266304
0.3692812364075981
0.3801446054162877
0.2306665689567976
0.2042344243696984
0.1810449078532036
0.1682677105256069
0.1609510880832566
0.1598273681886055
0.1649688099537477
0.1747653599073369
0.1902637146723456
0.2097408060159402
0.2307983111447971
0.2509539522583782
0.2699718978598118
0.2881567853912063
0.3073556150329273
0.3310529543010861
0.3636750143105038
0.3961262670527509
0.3891846630131478
0.2288914655008472
0.2025382532159591
0.1798438840972229
0.1676458539053737
0.1613386598696544
0.1614509756804017
0.1680469377213152
0.1789878832656736
0.1959750657103895
0.2165882926720616
0.2382076960918425
0.2599457719972051
0.2793782716419588
0.2982246210070295
0.3211554315894509
0.3518964684184675
0.391096185088903
0.4189127762771834
0.3801463567195726
0.2263686769802927
0.1997703132690727
0.178518189067452
0.1673805646555176
0.1619506637015393
0.1636484851982281
0.1716859025258637
0.1837021761665151
0.2018601264870812
0.2232941621375807
0.2455482286052858
0.2676910134778493
0.2876479603616914
0.3092848662102286
0.3364517912443335
0.3747925694905738
0.4176654726630829
0.436087330722913
0.3475770163741967
0.2229465851255778
0.1965103240771063
0.1770672008003426
0.1669726896007489
0.1625088088581023
0.1657414241596093
0.1752822830945007
0.1885447906317062
0.2076141819719595
0.2301254142885703
0.2531902924554221
0.2753300882364305
0.2963420796225727
0.3211732918056725
0.354566498360148
0.3992026580989701
0.442008033752526
0.4355330779231908
0.3128755708214119
0.2196359015549573
0.193867241246365
0.1757763278240301
0.1669835707123215
0.1634771640286535
0.1675059171485875
0.1774248828326244
0.1921654299075761
0.2124280066471381
0.2356520574198212
0.2596836851682827
0.2833709316398166
0.3064724697427646
0.3340785646243371
0.3734427893200682
0.4229916423250592
0.4632525776630927
0.422457762361459
0.2814465335479956
0.2168664219512214
0.1922166383934738
0.1747540098599949
0.1667570434569237
0.1644032168208254
0.1693337026840024
0.1799204309530037
0.1956228835663331
0.2163100189598147
0.2402792995921985
0.2654506075343979
0.290894230288438
0.3165508467197331
0.3492500723575295
0.3932874527902773
0.4453615562801177
0.4777967204772905
0.4085457777626214
0.2494565237700627
0.2143440488521607
0.1907082331569036
0.1740099559875803
0.1663733393945495
0.165125748165361
0.1715873895912504
0.1831714769685096
0.1992665437810902
0.2203594209868908
0.2455476773780751
0.2713635002506809
0.2977536808592254
0.3260179644556285
0.3634630368248132
0.4123929042795183
0.4663572241839889
0.4781127332523563
0.3851236619412194
0.2260302484851064
0.2116984018327457
0.188950313238691
0.1732900905632444
0.166492804606396
0.1661183215024197
0.1736726483078155
0.1860665744845286
0.2030833101246862
0.2249572103387947
0.2507933075150533
0.2771947975234987
0.3044309591240384
0.335097992648935
0.3756626793000944
0.4298161097018838
0.4843074145089732
0.4761297589071144
0.3608625959334109
0.2068470213067182
0.2088892554436466
0.1870500251053356
0.1725392159484812
0.1670732019643109
0.1673669363158752
0.1750965394986501
0.1883535359693972
0.2064078571946203
0.2290474345786786
0.2559620336318204
0.2834648568778333
0.3108479169699054
0.3435861092485415
0.3881609555604012
0.4482115537581719
0.5013662093366471
0.4812563087658502
0.3457895280526379
0.1919831963088346
0.2068202322270639
0.1859834690154187
0.1721819236199681
0.1674523597583585
0.168418047402565
0.1764721282124512
0.1902766948814277
0.2088223751230591
0.232393756285844
0.2601823801729386
0.2888393056461985
0.3178051845924203
0.3541265131340629
0.4015565083667595
0.4648851771505037
0.5139700954506354
0.4803855458476667
0.3330963356803624
0.1833865615887193
0.2050570860010261
0.1853858268967234
0.1717383297759867
0.1676068509824548
0.1697085521834529
0.1781440662619635
0.1921389938308481
0.2110705825696423
0.2356243883025582
0.2632101962592562
0.2925159254032591
0.3245530970192899
0.3636981197657169
0.413849688231895
0.4794321986042918
0.5109437176430279
0.4621760152595621
0.3203613549816106
0.1782646657788038
0.2033737284611926
0.1843470029319092
0.1713182638968958
0.1681384757252655
0.1710868077963877
0.1801443925766124
0.1942634249243421
0.2136458593626389
0.2392898408002536
0.266921591937965
0.2965515550515034
0.3308162890231516
0.3713745231515886
0.4250948430701225
0.4924801848491503
0.5059389920021261
0.4429271590047403
0.3087609408791942
0.1745996520854867
0.2021863435091979
0.183605155674487
0.1712597164077183
0.1686182067984115
0.1722653888695416
0.1821593749430208
0.1967803418471196
0.2168169738593308
0.2429177413185824
0.270680210391936
0.3008422715442153
0.3367010822351917
0.3792743829466883
0.4381974321378539
0.5044487889752874
0.5097732734242908
0.4372224772699026
0.2987411852797549
0.1699386465127514
0.2010858231945155
0.1830805922415034
0.171386327132337
0.1692782161672727
0.1733050574213682
0.1835401130010304
0.1988113199866771
0.2195890589950693
0.2457691411717723
0.2742379131882284
0.3055034197521318
0.3422464759925606
0.3859512889809094
0.4490043381429799
0.5161194510977386
0.5166002171434335
0.4363462262214764
0.2912510895749618
0.1645703448879397
0.2002799691948087
0.1826225877758759
0.1716436729711336
0.1699718688017478
0.1741059687444442
0.1844859173179658
0.2002708183677422
0.2219326630159774
0.2486468071954262
0.2780354396802215
0.3106518236066829
0.3476757388091563
0.3919052642994438
0.4574027593470182
0.5270399543948322
0.52391652546593
0.4370498280952059
0.2868087880752762
0.1614177736099449
0.1999592509974552
0.1822742018303918
0.1720702178496178
0.1708335554885112
0.1752589191491835
0.1855655324054558
0.2016882008920483
0.224053697852899
0.2515358123577461
0.2814925737893319
0.3146532261017972
0.352090312038873
0.3976085011778197
0.4655125609270877
0.5358306476643739
0.5288665693514046
0.4367985736295982
0.2836835727682944
0.1595997876747809
0.1995809529629392
0.1821046288091035
0.1725378968053701
0.1717463600188622
0.1768188344605866
0.1873969192479316
0.2035158345030169
0.2258219202713298
0.2537959972145536
0.2842208452600311
0.31763586622286
0.3556866017908336
0.4029594335333102
0.4720938728146003
0.5429860468880108
0.5336445182987646
0.4350657639930097
0.2796279475147281
0.1571628091759321
0.1993044212605256
0.1817312892512367
0.1727975427030093
0.1726040624429122
0.1781112938568068
0.1891058529406732
0.2057214828610188
0.2279016041807549
0.2559016327188952
0.2867680987732413
0.3203496878301586
0.3594741886172193
0.4083785924116415
0.4786114929630581
0.5485936984569837
0.5355214449362138
0.4352076666920536
0.2789010613910168
0.1550647393033782
0.1992590200558264
0.1814442804534562
0.1729574840800144
0.1734292251876713
0.1791028379114783
0.1900829893276887
0.2075250654156485
0.2299154988071832
0.2583353657274072
0.2892944950022377
0.3230752172359853
0.3633463604337403
0.4141353147121664
0.4849986450664688
0.5506108942581708
0.5348654459354275
0.4338910572062482
0.2789471614425136
0.1542774280345964
0.1990276884849114
0.1815108604549515
0.1732612075678476
0.1737795987506867
0.1798055609008723
0.1907473320420034
0.2084257643600223
0.2311795871052654
0.2604730502851316
0.2911939291021723
0.3250537007040744
0.3663760842822184
0.4194005576206217
0.4914828836125109
0.5509852463368028
0.5326211563332209
0.4297690287518991
0.2763107765964103
0.1543283712230517
0.1989226952827839
0.1816855485773322
0.1734854896081761
0.1739007129611886
0.1804744019147043
0.1915196108197982
0.2090807709672928
0.2318396430678633
0.261553400759293
0.292505972494768
0.326299901930966
0.3683479257695949
0.4228782711493996
0.4965492536596683
0.5517848499511745
0.5287663402959198
0.4268857629425433
0.2749175757102596
0.1544771271519174
0.1993556698404485
0.1823466948430226
0.1740359579323176
0.1743723546823208
0.1812778376849094
0.1926098910052447
0.2099904252070084
0.232665204044333
0.2626901512123585
0.2941223030262694
0.3276605386933649
0.3703083812163031
0.4258900483354479
0.4993737720178058
0.5506841805919608
0.5236221023813071
0.4233121923710824
0.2734198374975222
0.1546295779758661
0.1994594107979034
0.1828481071104078
0.1744001159831712
0.1749565553723972
0.1818622691742821
0.1935761301775083
0.211087525801552
0.2336483585423705
0.2641029127668491
0.2962852420997918
0.3297609300647339
0.3723546462510574
0.4282600260859795
0.5009586518770787
0.5505924548246571
0.5217892409815925
0.4199745046296333
0.270720991753554
0.1542131201205664
0.1994243417270681
0.1829918582488544
0.1742850053752541
0.1751888847098857
0.1824745245279045
0.1945914096729895
0.2121911738530234
0.2344374041473718
0.2646729658571939
0.2978095752218667
0.3317498652868502
0.3736473291817293
0.4294773691651937
0.5036482414389438
0.5535289178366223
0.5223653323209133
0.4180872934678935
0.2686555519728749
0.1529141145815777
0.2000739381746174
0.1833156924529232
0.1745612700149993
0.1754134693272176
0.1829193268668449
0.1955717845101198
0.2129885457654219
0.235527804674699
0.2658114342671211
0.2994042624236757
0.3335244098903098
0.3754575606004868
0.4312475233763566
0.5058512386367086
0.5523175453233594
0.5187872872178189
0.4160150619629724
0.267651427213829
0.1524639964115396
0.1945917697826637
0.1891672000827326
0.1784974278430769
0.1674430425224014
0.1605875984190345
0.1553479641803449
0.1509452345141828
0.1480392967652954
0.1457883083556806
0.1442794568634883
0.1436344343668843
0.1439497245031938
0.1445311864972036
0.1447318757019378
0.145318123102596
0.1457786257174931
0.1459485187416812
0.1458473828314428
0.14526464191621
0.1874401724752307
0.1817737804015682
0.171905643542295
0.164512630983957
0.1606941360973169
0.1588083795341921
0.1584260524116445
0.1586446526165031
0.1592454961359969
0.1605897721846524
0.1626916542183311
0.1654145873844489
0.1680652570627651
0.1698498128662217
0.1715450982154588
0.1730832999025723
0.1740424761349106
0.1746177548469047
0.1744084492340448
0.1838404817789439
0.1790763880079937
0.171116114794537
0.1673822663456371
0.1664646718233241
0.166972421159923
0.168760047765495
0.1713833380794798
0.1742212910864518
0.1773620568225385
0.1809105977095134
0.1840003208999772
0.186409299636084
0.1885325510920822
0.1901619378046746
0.1913171608870019
0.191548457396055
0.1907516690546597
0.1892471726994279
0.1831918356921032
0.1798855444586189
0.1741024757256844
0.1724206559824504
0.1726076134697175
0.1743609665122262
0.1767232611326185
0.179404157506485
0.1820750880829346
0.1839587321819739
0.1860286395402278
0.1876905356785371
0.1893723659613674
0.190454820408902
0.1905499601533295
0.1904200620488578
0.1894480653136044
0.1884520891428077
0.1877167366264527
0.1845122155058783
0.18127463400154
0.1764193668620287
0.1755332344475064
0.1761542323941673
0.1779884796233355
0.1795718927737768
0.1807921124653416
0.1824110380754506
0.1835495139074598
0.1849044142206867
0.1863898839813941
0.1883583504182099
0.1901983977978876
0.1917432552853403
0.1934137034275316
0.1951041115828145
0.1973790558810195
0.1997873982382527
0.1861479405130273
0.1819925622460777
0.1773240652393982
0.1767074980649663
0.1772420507617912
0.1783938848901563
0.1789261619337648
0.1799346261528253
0.1817125598338803
0.1834847869255648
0.1858871500556974
0.1893800949687914
0.193813245620004
0.1984816292975778
0.203417234573458
0.2083321232227383
0.2128756516468363
0.2176731565677277
0.2224036454982954
0.1879362250575471
0.1828157827497587
0.1779243356560398
0.1774957613961536
0.1774728074737016
0.1776705176425687
0.1783044721578262
0.1801511735682174
0.1829385258089108
0.1864464723350649
0.191375720859345
0.1984384074509012
0.2064269368128804
0.2141395916342727
0.2215038889082247
0.2281463853528607
0.234053117955506
0.239758711227067
0.2447733041835267
0.1891270528845736
0.1832144848874023
0.1782944147269641
0.1777204449924012
0.1776312966993219
0.1778542949706352
0.1795170124982607
0.1823344339886613
0.1864930362625068
0.1927071567923574
0.2012094442311243
0.2118363920671267
0.2220363815720344
0.2314749270404278
0.2395479582922813
0.2463793092406943
0.2525461227516602
0.2580996514797659
0.2624261113993896
0.1907917700890369
0.1843141887186298
0.1787649778736852
0.1779294278845012
0.177829122676103
0.1787552042542548
0.1815359514516726
0.1863023870480887
0.1929133813818922
0.2015028297469348
0.2128308833962674
0.2256870171874079
0.2369992003512732
0.2467283792272297
0.2547249284196584
0.2612409902785231
0.2669794132668197
0.2717710407051158
0.2750579085070078
0.1922218362354785
0.1850264222648604
0.1797043983540533
0.1785251195730027
0.1783615927433642
0.1804624757936734
0.184561345135173
0.1911176805660593
0.1999695844097851
0.2113042448764884
0.2246739256495636
0.2380421801668265
0.2495042104606107
0.2592375316779656
0.2670521298022756
0.2730325799302084
0.2781328172183772
0.2818847367178221
0.2839755524034808
0.1926155688355949
0.1852188153243942
0.1803076202760005
0.1792070917633651
0.1797000238983211
0.1826347937517518
0.1878002499506153
0.1961398090997227
0.2072117636183477
0.2202887250170769
0.2349200889582445
0.2489635890923186
0.2601552430152823
0.2694866955687262
0.2768912203356578
0.2824894873501183
0.2868010816136375
0.2898762379796383
0.2916914619820772
0.1934329788101553
0.1859620846275737
0.1807219967929932
0.179819252868877
0.1808557440548681
0.1845760098328469
0.1910694444822427
0.2015385973563001
0.2145953788476223
0.2286658326771763
0.2444259272172161
0.2585285407802208
0.2693459891613324
0.2781744686674827
0.284955698368847
0.2907533299976977
0.2947234131741161
0.2975282199226847
0.3000480946122709
0.1944539661280893
0.1864674603476974
0.1813667527261209
0.1803041283216206
0.1819690655422602
0.18683282958501
0.1947247828620891
0.2064512364896457
0.2214523967778399
0.236906451455744
0.252252787727158
0.2664372397725932
0.2770845166851922
0.285522391151866
0.2924998923701138
0.2981345505893223
0.3026789651598147
0.3062490434103654
0.3096723274183442
0.1952485367546352
0.1869623967676159
0.1820450724689523
0.1807726317220534
0.1831194822573006
0.1888533916034813
0.1982603329502658
0.2117928493309028
0.2281677914011848
0.2441422033875022
0.2588899380434751
0.2726801459745094
0.2834407542051791
0.2918991364916454
0.2993154603652775
0.3056128182528322
0.3110854254444062
0.3162834155260349
0.3211396670718691
0.1974041694223288
0.1878401284229214
0.1820354941178688
0.181282221616836
0.184315232200652
0.1907740800738008
0.201766662157652
0.2166799115748636
0.2330359345501212
0.2491573675816918
0.2645704148456821
0.2779767529084349
0.2891679247954244
0.2985178991672362
0.3063214956917987
0.3136884485736446
0.3208118719262328
0.3280282738355058
0.3358131925626477
0.1995758133787268
0.1884216135487546
0.1820653060387898
0.1818372134403826
0.1855432824198054
0.193168690459801
0.2050307136947772
0.2208147147996096
0.2370583340216545
0.2535791260098481
0.2693827121962181
0.2830228851316026
0.295246682154564
0.3054448881759741
0.3141272005726517
0.3224628480968183
0.3314844077278773
0.3421193710463031
0.3554342573511224
0.2002472854143991
0.1881749476331918
0.182660927199181
0.1824320914150952
0.1867569115930639
0.1952532685855825
0.2079544416986009
0.224836609450064
0.2414160291002435
0.2581741628909893
0.2739358402957554
0.2886870312442516
0.3015297090346476
0.3120909169129655
0.3221352499856273
0.3324552370662184
0.344026323142953
0.35995896064362
0.3797069398380409
0.2002856569907474
0.1876614146738116
0.1830523689608696
0.1830055998670484
0.1878119954377348
0.1972503172162322
0.2110333913557911
0.2280341234935907
0.2451532984430824
0.2619052435611106
0.277860372366436
0.293660776750862
0.3071323111266678
0.3191509302179858
0.3310166069525422
0.3440819368043458
0.3596896460538306
0.3832923427528519
0.4055154042289867
0.2006956428087082
0.1880730933066995
0.1829160637419618
0.1834981435979018
0.1886181006582466
0.1985948345230561
0.2136705034505376
0.2312490747214616
0.2485537902030525
0.2652646352722286
0.2819236621881139
0.2979469418525238
0.3129195520197845
0.3267111954884948
0.3400322319560725
0.3569717927158594
0.378982536340037
0.409205774257568
0.4245956030541779
0.2016352387106805
0.1891354799284391
0.1830686940437133
0.1837707205467278
0.1891963717126789
0.1997737353565455
0.2152518476662665
0.2331896367736559
0.2512204018302953
0.2686861531953081
0.2864629466361978
0.3033134463041113
0.3193484563173007
0.3344608185775545
0.3497361656454624
0.3712970462354277
0.4023209652598149
0.4341073678183665
0.4343801991011043
0.2030609965730879
0.189929620906958
0.1831834617595661
0.1838511345540258
0.1898703597200411
0.201091661611274
0.2166681783811967
0.2345796345155441
0.2528569796844932
0.271211668680455
0.2902541250928378
0.3084803786648075
0.3254272616168608
0.3427647234013793
0.3622654608189172
0.3895424219708189
0.4283176554464096
0.4587975214712467
0.4278488324970474
0.2043975029545472
0.1901520584874158
0.183468134719041
0.1843865734430304
0.1903921230230278
0.2019666079642731
0.2178052418377068
0.2359295756405818
0.2543505134069581
0.2737164747507825
0.2938694970352761
0.3133028235824982
0.3313808931725475
0.3512100253565599
0.3751024088459146
0.41028888893587
0.4566883329314478
0.4833355854833886
0.3933876749416612
0.2056655595356402
0.1903649599822212
0.1838689970556699
0.1849033666436596
0.1904252318151645
0.2025007519624056
0.2188296593931497
0.2367600892948869
0.2566121611884279
0.2770235619490641
0.2977586617006578
0.3187583605239817
0.3384768844122661
0.360501308771097
0.3905897982626283
0.43486299138233
0.4830769274444882
0.4800552199193242
0.352169094883265
0.2061264302978882
0.1903528189445983
0.1836548559031003
0.1848324247915437
0.1907011244572853
0.2030033469303293
0.2195009589434898
0.2374496337853381
0.2583232753265439
0.2798856241614891
0.3015080986060227
0.3238776051679641
0.3457901470747744
0.3707159549179873
0.4080481471153552
0.4599461781373185
0.5041613366934578
0.4612821319148618
0.3194442682307793
0.2062844489431979
0.189940287069804
0.1834594691396286
0.1847306076270736
0.1913542790112557
0.2036697009872347
0.2196107177829926
0.2378522899415613
0.2594309037289198
0.2823261302639575
0.3059416261018801
0.3291876617196635
0.3527122822672013
0.3830237809220669
0.4270407074754706
0.4811767349103626
0.5166038310544074
0.4488450663456108
0.2870458474349366
0.2069119715549078
0.1898486278733814
0.1832021104809258
0.1847466246202551
0.1917647070499314
0.2036708524232457
0.2195386700889638
0.2387257758202408
0.2610979471992541
0.2846620514013835
0.3097930012027402
0.3340510027001242
0.3590144425865801
0.3946606968942229
0.4449704884696751
0.4997684315079548
0.5104069352499018
0.4179041367788253
0.2559268362175186
0.2075275815795509
0.1899098796719537
0.1828467510132674
0.1845604631574429
0.1918723182487428
0.2033573182190841
0.2196274384613059
0.2398239277101685
0.2625757364601667
0.2866806765460272
0.3128871612948623
0.3387557971759752
0.3660710760821219
0.40507156148313
0.4598606763054711
0.5158989238024384
0.5058407234024523
0.3891511102289849
0.2306139858670852
0.2076395022370232
0.1894966553621361
0.1823353495754245
0.184134576181892
0.1914929241971745
0.2035156259535753
0.2199395822383123
0.240185339016393
0.2633085141611334
0.2884437454919116
0.3157478217895819
0.3429458340709979
0.3736138072753177
0.4167660722605298
0.4765536536382451
0.5327896832644322
0.510860985200813
0.3754350206598992
0.2147831691361434
0.2076490733673702
0.1892340061232588
0.1819369843324275
0.1837665419835771
0.1909515824062022
0.2035400854747128
0.2201129756646847
0.2405937766475504
0.264057570482825
0.2901923214043657
0.3178054399636182
0.3465449919204323
0.3812175994018283
0.4275894835562341
0.490428406705824
0.5390279633510076
0.5037874646468398
0.3615595639367092
0.2044106112086523
0.2071481456866447
0.1890915686974793
0.1815351002053254
0.1834919232089041
0.190842856574903
0.2033401579646407
0.2202656368543719
0.2414007016012255
0.2646812207373559
0.2910290691092193
0.3198496210241117
0.3514797223041374
0.3897704798106632
0.4375407770088969
0.5017089622758898
0.5339076955165949
0.479282637734743
0.3400954370400337
0.1943761518588747
0.2060112135168494
0.1886499279212924
0.1810271891230024
0.182912651364135
0.1902747433769517
0.2026619174450074
0.2203218658244496
0.2422021374053442
0.2657519228275422
0.2920426211844624
0.3220287286960486
0.3554735113704497
0.3951721115981119
0.446591909072655
0.5140988393369246
0.5303312633618492
0.4578372044767391
0.3202658204674426
0.1851569050767512
0.2055644129431533
0.1882823895011859
0.1808643069013689
0.1822624580890699
0.1895568023045298
0.2021823105910298
0.2201827423686336
0.2424154165787095
0.2670927981855244
0.2944047490076633
0.3247806557029659
0.3585328873585414
0.3989082141986609
0.4557325168946113
0.5261192346779929
0.5329094599856958
0.4510545095009338
0.308250546400745
0.177085863035126
0.2053439895804174
0.1875605184651086
0.1806409246023944
0.1818475251692324
0.1890925093295902
0.2018910924770928
0.2194378163443436
0.2419634906803981
0.2677521058077572
0.2958852284064039
0.3270163183902983
0.3620588053268224
0.4043143130229781
0.46465760849095
0.5352055744624425
0.5384777266052713
0.4481326003538116
0.2987532393581597
0.1722479664272019
0.2047067746885482
0.1869845659055732
0.1802909893100854
0.181511590660183
0.1885979203004825
0.2016448339461687
0.2190625662293945
0.2413944129268046
0.2677209433540561
0.2963406555744303
0.3278363816905325
0.3649578153265616
0.4089661263347822
0.4715481344045205
0.5405935522025651
0.5410141261072298
0.4466245817823752
0.2916072457568431
0.1674900216053879
0.20427171557085
0.1866653585508947
0.17973318733582
0.1811568415828149
0.1883098907721147
0.2013521828777012
0.2188081613242074
0.2408836313233701
0.2679065969644874
0.2977515682190157
0.3296636612663867
0.3675966612483622
0.4116782475709029
0.4764380753192424
0.5453203225613424
0.5431304700986255
0.4457369403209119
0.2865298677112817
0.1630212941153286
0.2041556627384753
0.1862456444593221
0.1792218375019378
0.1808829962060745
0.1878936039700009
0.2008086103053774
0.2183308726182719
0.2405584328929584
0.2685533326179207
0.2990528086307173
0.3315201262577732
0.3692985076105544
0.4134219659280727
0.4810230216131262
0.5515590409879446
0.5452565103207738
0.4417548397310616
0.2828012193940414
0.1612301063737422
0.2043102079463764
0.1860101203446308
0.1785737608276632
0.180313968279892
0.1868803467505699
0.2001143178164073
0.2178586229602079
0.2400574570546563
0.2686815265409491
0.2993075637130268
0.3318789492181301
0.3708055229447608
0.4168873655308616
0.4857241891848223
0.5552628210227989
0.5460975923769994
0.4393845897049538
0.2806169490217757