/*--------------------------------*- C++ -*----------------------------------*\
| =========                 |                                                 |
| \\      /  F ield         | OpenFOAM: The Open Source CFD Toolbox           |
|  \\    /   O peration     | Version:  2112                                  |
|   \\  /    A nd           | Website:  www.openfoam.com                      |
|    \\/     M anipulation  |                                                 |
\*---------------------------------------------------------------------------*/
FoamFile
{
    version     2.0;
    format      ascii;
    arch        "LSB;label=32;scalar=64";
    class       volScalarField;
    location    "0.0042";
    object      k_LES;
}
// * * * * * * * * * * * * * * * * * * * * * * * * * * * * * * * * * * * * * // 
 
dimensions      [0 2 -2 0 0 0 0];
 
internalField   nonuniform List<scalar> 
13597
(
0.174402347017122
0.1734749331662095
0.1740960592133949
0.1772091967717253
0.1813162850355491
0.185868415605009
0.1909420024008704
0.1968653886462037
0.2036580578820457
0.210740241674176
0.2190492795798576
0.228235149143534
0.2370048336036654
0.2458486820821986
0.2545682355023073
0.2623530957899972
0.269098867464246
0.2748740196681127
0.2806872315134528
0.1609368429571066
0.1602240562818117
0.1641742171064624
0.1738988180973976
0.182936456139384
0.1919916565220321
0.2022497470311354
0.2131108328117547
0.2241611029303459
0.2348803119285669
0.2463645485961127
0.2577866091320018
0.2678851489696634
0.2773201436761915
0.2852792499543724
0.2913735833849747
0.2955181924234863
0.298534637305505
0.3013772047632415
0.1531690286501016
0.1550595069638085
0.1644553072732345
0.1800777577032922
0.1931800835559764
0.2061947905794043
0.2193186744307768
0.2322791081855422
0.2450243858125562
0.2567850584110022
0.267315935585266
0.2767071786071917
0.2844571017745861
0.2900128763907094
0.2933847056294205
0.2950621239794151
0.2950848115854235
0.293828317582284
0.2915505966129377
0.1526306642755647
0.1582421191642123
0.1713709408615418
0.1901608675764204
0.206163123974043
0.2211361100522069
0.2355427623833683
0.2493269313033599
0.2617234168300867
0.272589231721039
0.2801984006491348
0.2853866773655436
0.2879968411557945
0.2882975614222794
0.2873000768787717
0.2850603070958588
0.2816703070935067
0.2777243539773076
0.2729176072325776
0.1572110203546254
0.1651485532749502
0.1811481827344263
0.202247477187278
0.219965763957589
0.2364158502625873
0.2518710036741358
0.2657577786578594
0.2762239022803315
0.2835917113417774
0.2880506337058173
0.2896886233532187
0.2885857993546997
0.2858805994612332
0.2826876081885395
0.2788932464519956
0.2741299707099342
0.2692554939602975
0.2637486008043259
0.1634492054373048
0.1726403689412131
0.1918053558667553
0.2154740222532927
0.2343132231258365
0.2519874166237941
0.2676658099919697
0.2802393043148471
0.2890291342491422
0.2939519812456481
0.2955447064056521
0.2939297727490401
0.2901310012583186
0.2852556548078733
0.2804693476019396
0.2758976827866474
0.271089046560957
0.2662455803440245
0.2613013948384281
0.1696488769765086
0.1808285534903929
0.2033242879867465
0.2290187365602803
0.2493101064031541
0.2675655555349736
0.2823366432928963
0.2928216299630621
0.2996489495765584
0.3018266351394267
0.299753621204641
0.2951407170473816
0.2894639793426318
0.283574505758479
0.2780569150075918
0.2736995805397834
0.2699594849546258
0.2664945047065536
0.2636804774094599
0.1763420608286247
0.1895273007448486
0.2155285386768412
0.2430869035849733
0.2642623831993437
0.2818930974805599
0.2949859949337258
0.3029768186282124
0.3065548203438913
0.3048022835874047
0.2993129297397605
0.292845199753496
0.2866555449708179
0.2811272039175243
0.2766092872874707
0.2736983652973419
0.2718113963426106
0.2707593449795424
0.2708447783622854
0.1829491402708919
0.1987587371255766
0.2279475756103822
0.2562790673181933
0.2776620926083575
0.2937762721320866
0.3034823522325792
0.3081907101838896
0.3081951966013476
0.3035587798156902
0.2961975137628406
0.2893236353995781
0.2839999441879362
0.2799977821750814
0.2776353585268156
0.2767836322183257
0.2772732339636827
0.2791568903103417
0.2824189289692955
0.1908128081515288
0.2101466196662725
0.2407819065655602
0.2681705126600667
0.2885708349260439
0.3017351605335518
0.3075628766627626
0.3085847783796119
0.3052829299628743
0.2991536840149283
0.2922968573783313
0.2866260991155382
0.2830464125944149
0.281310868969693
0.2815335207675095
0.283413823259715
0.2870272329216677
0.2922814959516147
0.2991334366922695
0.2001318960038585
0.2210627885261795
0.2524199152642853
0.2780035863710599
0.2952158750095424
0.3048946357842311
0.3080151143709272
0.3063152577287286
0.3008744310922152
0.2944259584677198
0.288823247447332
0.2852670745470089
0.2842643797150245
0.2853120434628901
0.2886630736111954
0.2941185240254206
0.3014696723236235
0.3101757300239385
0.3209106749338762
0.2098066766993649
0.2313764955302076
0.2625280583944536
0.2850317209582432
0.2983826672474443
0.3049487324127354
0.3056166821635023
0.3020341101990943
0.2958238356708773
0.2902808807035032
0.2866718529411682
0.2859823058266509
0.2880859770175963
0.2925479804261815
0.2997840736506581
0.30884655331946
0.3195826576541684
0.3322903842362874
0.347278902838058
0.2194165591313851
0.241336295002652
0.2701851220504313
0.2892760465141091
0.2994275079813107
0.3026272135398091
0.3009940673972815
0.2967430375064709
0.2917595143063538
0.2877864301545621
0.2868375187943744
0.2894342670356264
0.2949088495288092
0.3033599766477204
0.314215503184821
0.3266885472491319
0.3414591075073374
0.3587233332942701
0.3772692615098006
0.2294247148269232
0.2493458621124223
0.2742020327672674
0.2897834499082068
0.2971991145888555
0.2980898632201221
0.2956520776074466
0.2921639600052777
0.2890029114402034
0.2871877218654263
0.2889733001710513
0.2951018884733914
0.3044563427226654
0.3166656114466507
0.3311287620332238
0.3479288731926302
0.3674639990572624
0.3886460479028157
0.4108738110755288
0.2379824888102464
0.2541027652141866
0.2761975662588705
0.2876598648633535
0.2930265408583428
0.2933292224047623
0.2907420143645666
0.2883385679705627
0.2870334704133574
0.2881238832308929
0.2931688248921542
0.3030882507928408
0.3168599494451562
0.3326275167454561
0.3510468552772189
0.3724710672392329
0.3964050666823817
0.4221975214064191
0.453094283325207
0.2435241553896464
0.2562031133986544
0.275528927958462
0.2838357144802817
0.2872454271175919
0.2878889018181102
0.2866003601690919
0.2854088632269317
0.2862472064265492
0.2902999383783112
0.2994012000026648
0.3136817804670144
0.331149257532048
0.3506852499072654
0.3732553872500284
0.3988245931459621
0.4277748504929636
0.46261525623293
0.5107013874863071
0.2459277738335951
0.2564959484779911
0.2726468147204717
0.2791638066766059
0.2815158581913592
0.2823307718412288
0.2826714008547907
0.2835528745312675
0.2865972522541481
0.2939920287305029
0.3066369048316559
0.3246754748058882
0.3461559021786373
0.3697641508374231
0.3966742103275675
0.4275644033246236
0.4643480812498189
0.514292390052825
0.5803692150385573
0.2465361728712129
0.2545032240017992
0.2681148354102238
0.2736278501276373
0.2762894359752506
0.2780312512659117
0.2795593126330589
0.2825059000748355
0.2882655363400124
0.2988154736990321
0.3149290791516912
0.3367779554775439
0.3624090860412154
0.3905292277215594
0.4220417566897106
0.4588759244464158
0.5087872147431867
0.5771306376491974
0.6438257052302016
0.2459826639210304
0.251262187009865
0.2627718635194479
0.267958699641849
0.2713836245151429
0.2742397962941512
0.2770794521202882
0.2818666613220686
0.2903727708008339
0.3041712550028121
0.3246276998439874
0.3501554956142729
0.3796602861173319
0.4129090894538317
0.449604037994833
0.4958194999408559
0.5631279718467478
0.647803941006012
0.6953717029826572
0.2433110919827075
0.2463056557543859
0.2568808072262312
0.2624501279997912
0.2668820038475217
0.2708406231336555
0.2752948022554117
0.2822687712499899
0.2934040495664902
0.3104786731337557
0.3350832579493926
0.3642055431999882
0.3976148067417298
0.4351229489786302
0.4804110348911947
0.539798736642705
0.6249880163858077
0.7177600658737582
0.7308600999512243
0.239319371503423
0.2408433497059875
0.2505525119900286
0.256387815112013
0.2619912787146025
0.2676481609140287
0.2744131088098428
0.2833533254595682
0.2969477555910358
0.3169613586637596
0.3455496284533328
0.3796759238156443
0.4169468739558638
0.4577629965036374
0.5126956428365991
0.590029784187514
0.6925095058960665
0.7812411099367689
0.7301981261421986
0.2346324139426179
0.2353866099933464
0.244821965379579
0.2513174344607903
0.2580104650422902
0.2651983929687672
0.2739396549393402
0.2845193447316846
0.3009264687667785
0.3243853864946358
0.3560731810965312
0.3934852965319644
0.4346868995664431
0.4825580949917236
0.5473039536219404
0.6441196110510827
0.7606509015481786
0.8338858833339753
0.6799868618442517
0.2291977771424513
0.2298069415637428
0.2395160093756317
0.2470836965843551
0.2547894377948739
0.2634972673137659
0.2741135748214917
0.2866574690613235
0.3057591582456745
0.3330186202952246
0.3674450569121059
0.4071682887216205
0.4519905798158746
0.507896299722398
0.5886223243036248
0.7040517717255824
0.8275155240714073
0.8502441479523848
0.621967084933868
0.2234151839508811
0.2242685644652771
0.2349473978741679
0.2433567586753571
0.2520548574543126
0.2619569832582158
0.2741507996778618
0.2889468032657943
0.3105351004679164
0.3404659464662082
0.3779467348808466
0.4224877663224637
0.471785074219093
0.5357541026124837
0.6337970571116753
0.7663150149785688
0.8891002612820275
0.8387903408631009
0.5691605493322637
0.2180118066717785
0.2189561000159176
0.231015767755977
0.2403598612567402
0.2495785907245102
0.2607448137934814
0.2744254675122906
0.2912687692709577
0.3149822929389488
0.3468774772805092
0.3882422185051457
0.437129033737031
0.4908935970367995
0.5678560396983062
0.6797131242403927
0.823235071056622
0.9326675296110114
0.8205200132759658
0.5091106091990962
0.2135664177985015
0.2144472979194369
0.2269424489537647
0.2373688708613296
0.2474717703583865
0.259851685099471
0.2752066217236734
0.2939844963813557
0.3194342778928545
0.3541911922802774
0.3986872765463232
0.4503003632224303
0.5101654703228697
0.5992686638502414
0.724364192076535
0.8769998888863624
0.9453033882416922
0.7798249963808589
0.4632547874356673
0.2093382848936295
0.2103860868314257
0.2228609637933614
0.2342317342702475
0.2456857178697629
0.2592269829602087
0.2761574773439613
0.2968193647155971
0.3242584496722384
0.3620702913178323
0.4087368608498161
0.4622988979787938
0.529221785327727
0.6282298611256184
0.7692150919466424
0.925107666440238
0.9481343564646164
0.7345218936954596
0.4255973640226589
0.2048074452606694
0.2064226475719822
0.2197981936702467
0.2319854660849063
0.2443125842080132
0.2590306967579946
0.2773027886682719
0.299337913229582
0.3287405925647769
0.3698138868523689
0.4191151548732388
0.4740638506328913
0.5470349062951779
0.6570146392317217
0.8171748542698132
0.9710971339040592
0.962355409484833
0.703947838099869
0.3931469182643415
0.2001705277337229
0.2026417480073571
0.216883120264854
0.2299630622532583
0.2431878264993593
0.2587295489926768
0.2780156958840305
0.3015341819263637
0.3331967249343777
0.3768208559510818
0.4276147279257848
0.4864425553540513
0.569952837290785
0.6880462520486508
0.8588153371252747
1.0051858702271226
0.9630642073449582
0.6763229345978549
0.3721091415379819
0.1962864035033619
0.1989698749577694
0.2139219308527485
0.2279014306713391
0.2421529824010795
0.258856047099171
0.2788220123436621
0.303890127008751
0.3378761001181184
0.3821382563473086
0.4338561902965079
0.4990019284376982
0.5904881588152636
0.7183059880266615
0.8942764290523952
1.002026055052202
0.9265723815972696
0.6494501633458354
0.3601284820799427
0.1929816874921031
0.1956528490431188
0.2114390073582654
0.2262105567107581
0.2412370134342898
0.2591300918058297
0.2800359539126643
0.3069971190711259
0.3425352866169885
0.3871001946839685
0.4407103053713759
0.511150054987521
0.6048019092621262
0.7443897893508586
0.926500107929742
0.9946975155486288
0.8887809634752099
0.624935726154892
0.3518758070105357
0.1898433393721541
0.1931284835261925
0.2096805322351974
0.2251571296758915
0.2406133609730758
0.2589389712807653
0.2813098202483544
0.3102177690355176
0.3469412757736793
0.3927520652095045
0.4480751997360575
0.521756195381969
0.6199196285807376
0.7751617803218204
0.9566707205189098
1.0052856392600706
0.8785583832021315
0.6040571895682342
0.3410067792763258
0.1872379805122864
0.1911061851230566
0.2078329517718463
0.2242166210893937
0.240372366860888
0.2586988420814117
0.2818875454884843
0.3123622340158591
0.3508410837727036
0.3985770830856224
0.4554597104417707
0.5318924713125529
0.6343804448640052
0.8012457312451071
0.9853297886269996
1.0214129843519713
0.878445442523368
0.5898463437024707
0.3288445595731383
0.1849218734114258
0.1892127882203445
0.205932386799617
0.2228973829156553
0.2400841384750188
0.2589068769974776
0.2821716920440033
0.3136962949183078
0.3540608207574742
0.4043270491564208
0.4638080494681049
0.541898502868544
0.6469894240060623
0.8195374060302134
1.0096878329732328
1.038703211660858
0.8805249918711167
0.5813952768562116
0.3218158464916767
0.1830236029399929
0.1877271390152249
0.2047121407370759
0.2214173230850148
0.2396190181886422
0.2593976957191342
0.2828386613642503
0.3148947167529162
0.356463194108253
0.4087124944854003
0.4705761283865585
0.550375187311102
0.6604587183022237
0.8384612439190146
1.0263182650400322
1.046240213540364
0.877870272930944
0.5736908131960367
0.3173578540308142
0.1816258551441559
0.1864772285347058
0.2035140816489159
0.2201755214068561
0.2391011115170602
0.2595906787786478
0.2831977663945972
0.3160161915520889
0.3590262788998326
0.4119695080003848
0.4754776953513134
0.5579979797509567
0.6727600449713068
0.8524132384575399
1.039012323392875
1.0525859700520452
0.873119740641547
0.56508147583361
0.3118739875489905
0.1803426849343769
0.1853121834797219
0.2025622893397797
0.2191387507114906
0.2386498672279423
0.2602125690540771
0.2844769049910512
0.3175940480056927
0.3616816079487648
0.4156484486509309
0.4804621075883748
0.5655081802125353
0.6830830262857268
0.8644074291561085
1.0497427022861066
1.055571482962271
0.8726815598558844
0.5628945459273255
0.3073806993013349
0.1791513474018892
0.1840584755541294
0.2014601020619803
0.2182062301828562
0.2380996063778291
0.2604064607777145
0.2859287851863855
0.319300153114106
0.3640658202438034
0.41871098580951
0.4846681072018266
0.5719020283967065
0.6953620605147691
0.8781845566931462
1.05448166235727
1.0550117316188816
0.8687690136894245
0.5610339158014854
0.3050053256774916
0.1780700475456282
0.1826774699373858
0.2000507330785423
0.2177329399879
0.237995017075397
0.2602851339355528
0.2863756218520412
0.3204553602372653
0.3663474080304881
0.42105096718813
0.4879354653098472
0.5769576053148066
0.7080607882939439
0.894740087717554
1.0570331566144022
1.05118847058614
0.8607736422982197
0.5554253026362831
0.3040744468093897
0.1770047447087513
0.1814382003909061
0.1989637733299898
0.2174496953456349
0.2382310567549685
0.2605764879012742
0.2866887608955366
0.3211932488785869
0.3677163224620737
0.4224162294474041
0.4901924047881826
0.5810325248681716
0.7152633101698471
0.906502103655126
1.060234836198199
1.044850829496346
0.855977000625351
0.5522301745543748
0.3036957483985277
0.1760526162574995
0.1804427155836108
0.1982442378460155
0.2170519107509153
0.2381515905848239
0.260740599760528
0.2868941389724785
0.3218432285486164
0.3690469188964061
0.4247234320341484
0.4929909984282294
0.5858810233442034
0.7215366770642064
0.9128119103890698
1.0600481948979266
1.03666906003125
0.8488543705970241
0.5481505229973409
0.3035066701483475
0.1754960489229955
0.1798580434816215
0.1979597719270401
0.2168565050419501
0.2375924240202975
0.2606738808693278
0.2872890359452751
0.3227683939892749
0.3711663202637323
0.4284808445261386
0.4966730622556359
0.590597110877747
0.7272506757860471
0.9155131319834672
1.0592969373588514
1.0323963292924956
0.840692781561848
0.5417435850975815
0.3021824816908574
0.1750761603179958
0.1795929329841928
0.1976672076633931
0.2164108524878843
0.2372176724270422
0.2607137636444168
0.287868369773804
0.3234081993855621
0.3719956497651675
0.4305189910033657
0.4994112941053984
0.59295488097347
0.727481280910361
0.9175562261024904
1.063879653982676
1.0310769029067477
0.8331942369462816
0.5355311322026343
0.2988775780521112
0.1746514176364762
0.1792653841850751
0.1969860422934094
0.215592448740641
0.2371794749433811
0.260857340027899
0.2881445178239004
0.3236094689983479
0.3726647052886022
0.4326011392192795
0.5020980188769442
0.5959159308458452
0.7293703703454938
0.9208978432830572
1.0614935836197024
1.0223439947790756
0.8264817199492676
0.5318493543684553
0.2972089510191891
0.2342843920611236
0.232413008654629
0.2282175841509507
0.2225343559419542
0.218454673762188
0.2149692764931138
0.211562541663708
0.2083444196630598
0.2068671539535697
0.2065601206055926
0.2064262722536246
0.2076438026725988
0.208945181418681
0.2105241730476303
0.2130912729541429
0.2155249597057201
0.2184062767025681
0.2217514224650355
0.2248701640138275
0.25485278977625
0.2545490878514195
0.248129621412837
0.2414045864761257
0.2368295077925095
0.232727169727354
0.2293164675154979
0.2260093564904471
0.2233469669460436
0.2219779950176424
0.2219016648190151
0.223905140467875
0.2271951738835853
0.2310458085082189
0.235914068775787
0.2413118057940264
0.2473383206248948
0.2537251970423546
0.2590486065627643
0.2670026914625098
0.2650754958539236
0.2556053263630752
0.2473444439904168
0.2413034040159371
0.236267958593092
0.2322139710991654
0.2289245144362037
0.2275806061309347
0.2286352343161055
0.2320975739369402
0.2373236411014897
0.2452019480114745
0.2545067537707433
0.2636899193966766
0.2730782679608822
0.2809672274308525
0.2879211372465547
0.2944350948882229
0.2717723077411382
0.2665111422684446
0.2543315938669671
0.2448021300453883
0.2377076512117261
0.2327633474892364
0.2302861505796123
0.229906634766587
0.2319912394910383
0.2367350975093034
0.2451641197975652
0.2551540866036696
0.2674875325858393
0.2805371599546761
0.2911836793913357
0.3007650956042945
0.3088410097529254
0.3160007172957238
0.3231175996677265
0.2700004572641541
0.2615671687975618
0.2486179009695575
0.2397587857963579
0.233233135141883
0.2297661675989693
0.2305187430448831
0.2337825328122026
0.2398058496640507
0.2491225296705306
0.2618922528404716
0.2758746205130586
0.2905605780979533
0.3045102967599198
0.3154644984727127
0.3251220192747576
0.3335319098268983
0.3408316367741713
0.3474893377805819
0.2651074143083052
0.2544446472779723
0.241885078207851
0.2347660208574355
0.2303974089721333
0.2301283225593579
0.2336532872926068
0.240178179484387
0.2499897561398344
0.2627820571004131
0.2782023924942904
0.2942424646698276
0.3096692463766026
0.3231348698992634
0.3342432817349064
0.3432108545562135
0.3498487719376055
0.3554351584081364
0.3604640509146284
0.2601921405762425
0.2479356195302075
0.2358702046122359
0.2314470392973114
0.2304988336758549
0.2329463057237354
0.238925041565741
0.2476374036831477
0.2597408252481292
0.2746827072835174
0.2913705051704985
0.3083556935765157
0.3235817987204514
0.3360187854318007
0.3458470097304459
0.3531346023976773
0.3581665897536138
0.3621261385051825
0.3651462261447682
0.2550081272517399
0.2425937754852832
0.2325033698355555
0.2302148050845632
0.2315254026198316
0.2359490578575749
0.243949578570919
0.2540824085452672
0.2678049328674171
0.2839961891189335
0.3011416365416954
0.3185554625517832
0.333072752253943
0.3441164104740298
0.3520892966009024
0.3580017936789049
0.3619578046322902
0.3648943898299701
0.3668879069867127
0.251373069199003
0.2394841993160611
0.2310493180309406
0.2302839957550077
0.2326272757768896
0.2381407853661602
0.2474587188614024
0.2600009208203741
0.2750886302630593
0.2918706901600041
0.3094027061558331
0.3259312107807521
0.3392391648635324
0.3489548773491476
0.3558504522704135
0.3609709922254489
0.3646727928128943
0.3675645377997423
0.3695611156636716
0.2484126914692071
0.2373831964281404
0.2302806837920201
0.2303594520387441
0.2336546166257078
0.2402370519472604
0.2507327251916556
0.2647150083886245
0.2805891278886545
0.2985499314171063
0.3158101661354476
0.3309195484859834
0.3435026292116854
0.3526282268566638
0.3593407823926467
0.3644487713209418
0.3689064411706505
0.372760279210649
0.3756443254445588
0.2455309708094659
0.2357790485065266
0.2299823115493783
0.2305499966441914
0.2345173271211691
0.2424141406117194
0.2537191253072748
0.2683274778808577
0.2850979999261964
0.3032121510827018
0.320246977049504
0.3351182243482197
0.3474515201756413
0.356847724506016
0.3642932754302723
0.3702640873266985
0.3759505559807237
0.3810389685812588
0.3854104549816918
0.2441834091753153
0.2350024436813428
0.2297521870501936
0.2303065409463232
0.2345999636430812
0.2437316220983281
0.2557943701153535
0.2713372290854692
0.2890736590169176
0.3069522047557725
0.3248269583677408
0.3401007029828058
0.3521672479888749
0.3623330375781323
0.371077471695032
0.3785111581566401
0.3858144068626544
0.3929931362022126
0.3998841131508879
0.2431833311381845
0.2337374716586623
0.2286868796852262
0.2294517529564238
0.2346544192219744
0.2446473858811864
0.2575437036503403
0.2735872121315785
0.2920647433386434
0.3107131138969984
0.329239641791393
0.3455403073030742
0.3583973018336857
0.3693665853725345
0.3796592829127224
0.3893412566681935
0.3991717155326632
0.4097468950986083
0.4206133216703927
0.2422685311061682
0.2320819428786705
0.2269869384117561
0.2284252281135649
0.2347946088229111
0.2449586066154339
0.2587064646409114
0.2759708582953559
0.2953859235202372
0.3149925245849687
0.3339381943707049
0.3509101868212741
0.3656676094082082
0.3781139977337515
0.3905406485060599
0.4038164785940006
0.4170651861322301
0.4313615425099086
0.4471785361323551
0.2419355399666972
0.2305342325859099
0.2249111803943046
0.2270377300174459
0.2338067962706528
0.2444587054885538
0.2596743743212428
0.2782546539056075
0.298727553309668
0.319390004200833
0.3387668846600178
0.3568291196591359
0.3738706453698389
0.3889936789650999
0.4041168928291648
0.4211882963418959
0.4390266315105221
0.4586026615835279
0.4847624675508029
0.241062920725891
0.2284783234354207
0.2229796665342128
0.2253599511113601
0.232593042820749
0.2443007507289527
0.2611831188548993
0.2808038439682548
0.3013994598080228
0.3233505597157839
0.3440969017927136
0.3642902244750927
0.3834414149344734
0.4018344048635801
0.4206772806678155
0.441006260687929
0.4645693813092722
0.4944261686195098
0.5372277344390568
0.2391250188870269
0.2256117867176153
0.2207545375214192
0.2236826196418204
0.231990377183816
0.2446695913107875
0.2625649378277051
0.2834102878857407
0.3050485076688727
0.328024357746665
0.3502219882267793
0.3723186569880649
0.393822469704041
0.4159574351262256
0.4391796071461061
0.4644008560199684
0.4958446931998159
0.5410202123519213
0.5982048322156518
0.2361449042011327
0.2220229352222636
0.2178686658488474
0.2218148315341473
0.2310677485682389
0.2453481192379734
0.2643883679211863
0.2860185637481224
0.3094227297390647
0.3331492821673556
0.3567442886176631
0.3817308621443894
0.4062016175115796
0.432050073536773
0.4596319507671408
0.4922430543181867
0.5364614587628364
0.6010173529826551
0.6598298197824487
0.2322722554354414
0.2180310454607313
0.2150993243392713
0.2196853257222455
0.2298670291257108
0.2455473324312798
0.2661178905966696
0.2890647443857326
0.3132856909144373
0.3378855522529526
0.3638430346463563
0.3918133069314853
0.4197810514158862
0.4496052762399647
0.4827073195528534
0.5259947966018662
0.5870206810855879
0.665829142758116
0.703322747719913
0.2278319506634752
0.2142279818045525
0.2123572638438408
0.2177625874679182
0.229211436998285
0.2457290609260836
0.2670786042186399
0.2914412005255286
0.3169250539419935
0.3430014388859119
0.371801646259833
0.4026001491176049
0.4346336579876805
0.4695668248078064
0.5094979846505963
0.564320869778005
0.6451718707458185
0.725524895326803
0.725937427034278
0.2236262785086683
0.2112628944374802
0.2098553083155389
0.2163104743611044
0.2289562949259616
0.246270311484508
0.2686965015767759
0.2941028260605169
0.3201788750909815
0.3479373606359039
0.3800337921515283
0.4149990285674018
0.4507953821289295
0.4909984411022941
0.540147150160659
0.6093808236317638
0.7062091752772465
0.7799200860087886
0.7228677539415063
0.2198413780731988
0.2078998198419665
0.207532117682309
0.2150006348160107
0.2286167299178108
0.2469033113595686
0.2702294953185118
0.2965540395001365
0.3235639430340996
0.3533512298846148
0.3879683629522679
0.4265342490257196
0.4670804520452057
0.5127997682157944
0.5711719882700539
0.6607095787413952
0.7727244717411108
0.8342753706470757
0.6733191607081542
0.2163819565201306
0.2042212348480055
0.2050703329434554
0.2135822104444178
0.2281797496031094
0.2477026912226429
0.2716885658456365
0.2984228043259391
0.3273047974818333
0.3595365169608341
0.3963393613555104
0.4388444201292063
0.4852144844421755
0.5374684635593806
0.6095848843012774
0.7189705382419354
0.8370241382342716
0.8432968242885573
0.6097245908268333
0.2126894549931679
0.2009483779629383
0.2028119111770458
0.2122906349711076
0.2283679299750368
0.2488058109421503
0.2731184363699567
0.3001450189779869
0.3305092022825029
0.3658618543424233
0.4055415105091542
0.4516374276008867
0.5030525279371191
0.5637381065719836
0.6525844356912149
0.778936730623996
0.887794646210436
0.8186248147010297
0.5580225038162547
0.2081605860464128
0.1974303818829379
0.2009996495591667
0.2115397978234516
0.2286161612244986
0.2496467784521331
0.2740947635836825
0.3019845532399882
0.3341199862131477
0.3724948963906456
0.4156881382533851
0.4649571420051501
0.5211892016215273
0.5933857223715441
0.6965783156272853
0.8303003935321355
0.920098649981116
0.802500109687491
0.5069127168912345
0.2037696307467882
0.1938281325786376
0.1992435241705857
0.2110715093256814
0.2285484122218311
0.2504816533382393
0.2757528545701221
0.3044478665442144
0.338473100444706
0.3787830922115704
0.4248029895330938
0.4784260767522377
0.5383830382458643
0.6210556777455356
0.7399886975808352
0.8757365854714536
0.9201762252365984
0.7583431430814459
0.4597844254949197
0.2000048522062366
0.1907208190824783
0.1973206725333274
0.21041718834399
0.2285718739028984
0.2512218796466511
0.277521639087024
0.3068091649750092
0.341911543486177
0.3838213224338814
0.4334836927273933
0.4916468418080792
0.5560992323730876
0.6461840716706855
0.7794525423317727
0.9195166541004272
0.9242799687263218
0.7167240593819668
0.4201029778365761
0.1961906905687391
0.1879937554771371
0.1957918582640212
0.210109791492397
0.2289661901258959
0.2519554046149866
0.2786460575982183
0.3084811669727118
0.3445325096110972
0.388408847117842
0.4420918149946262
0.5030789329517531
0.5752130893664265
0.6759557456714257
0.8225602159648082
0.966245416328452
0.9441821345424024
0.6961561627861896
0.3940083076329213
0.1928470682711594
0.1860146239472173
0.1952771437901015
0.2100728448072871
0.2293437305586713
0.2526758632381035
0.2794316305058818
0.3104501332240581
0.3477611971843613
0.3937892962943999
0.4495467930536636
0.513296671197317
0.593780416073164
0.7049599294414813
0.8593263571039564
0.9902211575471916
0.9411671019140508
0.6732785204945304
0.376674605746902
0.1897036025894844
0.1842882776982187
0.1948668847458233
0.2099882808065873
0.2292737635768192
0.2531065939391426
0.2804395244622586
0.3126563221291037
0.3504532192760621
0.398240273684826
0.4567256510843952
0.5255183790815603
0.6131760415276744
0.7287711259140931
0.8883690333646911
0.9880202458900684
0.9044260007804414
0.6389238408958839
0.3589404075734551
0.1866967034506187
0.1826789351735576
0.1941333043726993
0.2098949711897355
0.2293859724056435
0.2533930969187528
0.2813914795196067
0.3149064383210285
0.3531600660655649
0.4020814793408441
0.463014866264027
0.5353501689152429
0.6259898184093685
0.7492186880604922
0.9201518554311028
0.9886470639418008
0.8688410099564934
0.6063382445660924
0.3433350987018113
0.18439876040101
0.1812208326905275
0.193653898841858
0.2099073025410828
0.2298425783538622
0.2538549312187858
0.2822354530192632
0.3168289984715227
0.3565982724915562
0.4072739965743136
0.4694519050612949
0.5438272762617696
0.6373508898192313
0.7717908876275248
0.9499647994582486
1.001289320338186
0.8597835073906306
0.5855611901894808
0.3303051923655132
0.1825002976500057
0.1799714585240638
0.1935870822475577
0.210105429138809
0.2305433677274863
0.2547185946208767
0.2831807726303033
0.3178332411219662
0.3589814004430996
0.4121830863121276
0.4766383201987927
0.553392113334238
0.6514292997896343
0.7970102759698108
0.976095728332396
1.0194258748498146
0.8619547192963388
0.572230477414562
0.3247017779755698
0.1806622101105328
0.1789887154625034
0.193373748846877
0.2104787455161892
0.2315671521785483
0.255905834495004
0.2841586925273978
0.3187782339171033
0.3609660432709388
0.4150786098311044
0.4803986115711137
0.5602856852033103
0.6620441897214209
0.8179948241000999
0.9957730437989054
1.0294047307450842
0.864234874734837
0.562645292325864
0.3184106698578641
0.1791379492279889
0.1783911605814972
0.1933717056410533
0.2109933270509803
0.2325988781810808
0.2574441662661522
0.2851966045814564
0.319587960174955
0.3636073100289064
0.4179597365991376
0.483302724118428
0.5664847140684365
0.6698692679440629
0.8320228365753601
1.0106394204060587
1.0391237048126716
0.8657370966452866
0.5531061795868006
0.3098718356193842
0.178029737820796
0.1780889862666512
0.1936650261222528
0.2116541263576404
0.2333788699833164
0.2583353128904009
0.2858779011574222
0.3207182668459631
0.3660277072229255
0.420875855785339
0.4881465918107048
0.5726696578204473
0.6761383689466783
0.8456607328189639
1.030009993334395
1.0506526883516327
0.8624658529886614
0.5469321743334185
0.3066255855863004
0.1770201158586862
0.1777668410353606
0.193801368263074
0.2120971250837067
0.2334975064669418
0.2586170647967448
0.286388213550112
0.3220871126116326
0.368154940552748
0.4232305382635927
0.4909837372876739
0.5771195381419544
0.684618241302018
0.8596229046709141
1.0450608514588782
1.0571648167385754
0.8597134728719356
0.5455668449177201
0.3068174934372312
0.1761830792734256
0.1777746631652819