/*--------------------------------*- C++ -*----------------------------------*\
| =========                 |                                                 |
| \\      /  F ield         | OpenFOAM: The Open Source CFD Toolbox           |
|  \\    /   O peration     | Version:  2112                                  |
|   \\  /    A nd           | Website:  www.openfoam.com                      |
|    \\/     M anipulation  |                                                 |
\*---------------------------------------------------------------------------*/
FoamFile
{
    version     2.0;
    format      ascii;
    arch        "LSB;label=32;scalar=64";
    class       volVectorField;
    location    "0.0042";
    object      U_LES;
}
// * * * * * * * * * * * * * * * * * * * * * * * * * * * * * * * * * * * * * // 
 
dimensions      [0 1 -1 0 0 0 0];
 
internalField   nonuniform List<vector> 
13597
(
( 17.16119593847989 1.6875078121281135 0.0155094330148205 )
( 17.160897194814098 1.7298568311364182 0.0192656575700689 )
( 17.16954316556947 1.8148791336738208 0.0276459538912505 )
( 17.185449271547537 1.9229791344625344 0.0384868211355198 )
( 17.199410270208148 2.0137160006265287 0.0475527340020849 )
( 17.20678909977633 2.0870021716817337 0.0538625948910606 )
( 17.216568857982992 2.158555016985312 0.059711611102055 )
( 17.229168318858385 2.2347840221772204 0.0654940771511465 )
( 17.24375264156112 2.311091901296958 0.0698636745834225 )
( 17.25934768192138 2.387381215183531 0.0732515727095955 )
( 17.27502188853661 2.47258764754943 0.0756348109737765 )
( 17.29514399652034 2.557823454788552 0.0759280747278957 )
( 17.318502966223026 2.641206275330988 0.0749789742161563 )
( 17.341942492172112 2.730605446545994 0.0728653671109598 )
( 17.365399562923386 2.8235307919305805 0.0692421343481972 )
( 17.392562838503814 2.915564820747355 0.0651423153113561 )
( 17.423930260535215 3.0045374174858788 0.0607725030595451 )
( 17.456598181774552 3.0938797562363245 0.0556764212595506 )
( 17.490761652677424 3.18681357948501 0.049438915290971 )
( 17.05341310362149 1.7216423026833905 0.0061805708941334 )
( 17.035964531129697 1.7741956413351552 0.0102704429924363 )
( 17.01857469830409 1.8811684085538305 0.0205558968828799 )
( 17.000052919671408 2.000847996599952 0.031802978761691 )
( 16.980591766284245 2.091140584460826 0.0400749151779738 )
( 16.95902562550229 2.174187109413685 0.0469360137163277 )
( 16.94038034854265 2.257486974675466 0.0524951488642812 )
( 16.92192759473307 2.344568244317708 0.0567369632247897 )
( 16.906945804732022 2.4340604403664936 0.0591986946764614 )
( 16.8922657341424 2.523818916696934 0.0602007616031432 )
( 16.876173782320816 2.6244205888939742 0.0596916029676518 )
( 16.86008562116173 2.7329148206797598 0.0565135391052806 )
( 16.844115643074396 2.843087844755578 0.0518778496703432 )
( 16.832291150759865 2.9579585135524447 0.0458245665208303 )
( 16.824531537794964 3.07244214870539 0.0385442752059327 )
( 16.82157070963572 3.1818897070685663 0.0318043802572437 )
( 16.821538118145767 3.2834671339290997 0.0256461962319161 )
( 16.82204873961626 3.388052672823875 0.0191596707384241 )
( 16.82885847232765 3.492707668088592 0.0128254508709561 )
( 16.94025540898986 1.7435520083146074 -0.0024895953527552 )
( 16.898880489441634 1.801236829837184 0.0014889083660573 )
( 16.84779844387757 1.9184591229296064 0.0125025620612992 )
( 16.790671217158007 2.0414321330334717 0.0237479217026089 )
( 16.73646873192843 2.1302414705069803 0.0307057215431131 )
( 16.687075813323265 2.21911357311774 0.0362364255029767 )
( 16.640599654718034 2.3120831903174217 0.0396441507173792 )
( 16.590292738339798 2.407061491113927 0.0402039055578298 )
( 16.543995893144896 2.5091001934165456 0.0385306525479246 )
( 16.49994231390012 2.621330499837359 0.0350220856889056 )
( 16.45541761565171 2.741530581189315 0.0293433283070698 )
( 16.412530877400094 2.8739536652557565 0.0215706790155932 )
( 16.372870240801408 3.013192930815199 0.0128491848166728 )
( 16.339367419485914 3.148442347308793 0.0038161204765034 )
( 16.312560529538896 3.273791573406339 -0.0049264013935866 )
( 16.291707014718455 3.3869793406917514 -0.0124490161180064 )
( 16.27129344348005 3.489643316368459 -0.0190881459104017 )
( 16.2516414443958 3.5931671048529195 -0.0255402425281749 )
( 16.241331697696328 3.7015063168957263 -0.0309372786032288 )
( 16.813871946374924 1.7498352120622689 -0.0111977142702984 )
( 16.74467970079835 1.8089610559578475 -0.0075043709812169 )
( 16.660999890687044 1.9263925126933903 0.003937632823579 )
( 16.56837611499866 2.0483865014387885 0.0148040357919527 )
( 16.480354198409323 2.1394861706503088 0.0194187864204334 )
( 16.400944438049834 2.231536125137086 0.0214028863219778 )
( 16.321718321516354 2.3330368024948487 0.02022958641328 )
( 16.24157249112964 2.439744441130078 0.0159430815044914 )
( 16.17087615532669 2.5558811368713794 0.009677600146975 )
( 16.104550475294122 2.6854368291391584 0.0015262380741182 )
( 16.037192706837363 2.826721491179655 -0.0085480552316832 )
( 15.97881816958773 2.9778333140580187 -0.0190132482238863 )
( 15.927350663264656 3.131505443713933 -0.0289798489762876 )
( 15.877517560917056 3.2800637123861742 -0.0382916917229654 )
( 15.831736449523731 3.409123245896388 -0.0461432349576499 )
( 15.790692832917353 3.5207912111914834 -0.0521790593845992 )
( 15.751970202793306 3.622885076605513 -0.0568553643554933 )
( 15.71109700424642 3.726181266629397 -0.0608242444132136 )
( 15.674267563976334 3.84137654479315 -0.0641138031726508 )
( 16.679018059362765 1.7408602833337852 -0.0185593878375165 )
( 16.585286857028592 1.8014889615266727 -0.013698308749751 )
( 16.46875780039548 1.9189130334816065 -0.0030426278403175 )
( 16.342432599768948 2.036793274591972 0.0046263767803491 )
( 16.228039881277393 2.12932438201394 0.0054489536080169 )
( 16.12254413691014 2.226156479381715 0.002916841715915 )
( 16.01528686108312 2.335770136280025 -0.0035108667152749 )
( 15.912932753345189 2.453452559256128 -0.0120231937115658 )
( 15.821940699856327 2.5793726731420814 -0.0215305167315456 )
( 15.733720000259629 2.7200166575372005 -0.0325010520454391 )
( 15.6451554637573 2.878511803371357 -0.0441009279152053 )
( 15.56417909242568 3.044227752647656 -0.0544819735346566 )
( 15.488648691597373 3.206839717972996 -0.0629761153723309 )
( 15.413644259000648 3.359743847200103 -0.0700593188379806 )
( 15.340736280237142 3.4860548064920294 -0.0752701244332134 )
( 15.270829718141572 3.59965053314627 -0.0784641461619188 )
( 15.205191206939563 3.708285670543203 -0.0798653164170293 )
( 15.140098106761016 3.8171668767213207 -0.079863603802012 )
( 15.075140933884274 3.939817349819137 -0.0788385100326855 )
( 16.541236859048926 1.716960300932341 -0.0247015978202972 )
( 16.42277783349229 1.778681500059858 -0.0192378594337395 )
( 16.2722369632334 1.898378494518769 -0.0105224760045955 )
( 16.120334188067318 2.01387402431966 -0.0072435925251442 )
( 15.987096124116166 2.1084021795981003 -0.0108823605764626 )
( 15.86256163458135 2.21110138597772 -0.0178394993687833 )
( 15.73923679635574 2.325222490175035 -0.02752469838426 )
( 15.61768039628646 2.4491758565224893 -0.0387473409060515 )
( 15.498183094034095 2.583262606753671 -0.0502731139319655 )
( 15.381408773774377 2.737826161388796 -0.0620474428768074 )
( 15.270815437148771 2.905233851033543 -0.0725711023459441 )
( 15.16095735442567 3.075616740869741 -0.080317098625623 )
( 15.057020146754205 3.243705520383724 -0.0851885491788308 )
( 14.957932409815657 3.3962946760125043 -0.0875917618099394 )
( 14.858753530961971 3.5232241061515395 -0.0882205555620087 )
( 14.767239153223422 3.635378299971044 -0.087144260631361 )
( 14.678306454504993 3.7436017601172864 -0.084601201393463 )
( 14.589377382798675 3.853480790576961 -0.0807498131936536 )
( 14.501063191826454 3.978707613833638 -0.0754284211361426 )
( 16.39478699606186 1.681287289323441 -0.0293196033263981 )
( 16.253433105567353 1.7449358381415392 -0.0248238632241621 )
( 16.07911504435587 1.8661240920158635 -0.0197486047676543 )
( 15.909474410315696 1.979274493604418 -0.0214171017877164 )
( 15.760353508338657 2.075145452501065 -0.0289992072821425 )
( 15.616282381511386 2.179949328291208 -0.0394867384618836 )
( 15.475235569403685 2.299377700940425 -0.0510830901003419 )
( 15.334679082530048 2.429912269976356 -0.0637042542144995 )
( 15.189813286007388 2.5685023217338627 -0.0754974108167621 )
( 15.052860249603455 2.7290646455755123 -0.0843633554028055 )
( 14.917960590758556 2.902249032973585 -0.0908914408459386 )
( 14.779063655659712 3.0775401357124728 -0.0944815329731687 )
( 14.649919490002588 3.243599464852504 -0.0946220644599863 )
( 14.527122469729283 3.3916007529264207 -0.0923255738171922 )
( 14.405404904295612 3.5211087926787923 -0.088217502014816 )
( 14.291802363735371 3.629480570768462 -0.0829882027253914 )
( 14.182332258824054 3.7340285829800295 -0.0767700476440375 )
( 14.07104623672632 3.847373089691655 -0.0692883579961895 )
( 13.960635715644724 3.974990678739898 -0.0606246499124253 )
( 16.252726188032003 1.6383813924091968 -0.0336245090020755 )
( 16.090987997302108 1.7004691193394808 -0.030991483313848 )
( 15.898244322270363 1.8210943395875463 -0.0308078593094474 )
( 15.71456569188208 1.933051637281516 -0.0375011236023822 )
( 15.548969956159109 2.0307170470061995 -0.0483110732357149 )
( 15.386547625242963 2.1401034717987195 -0.0608700613910341 )
( 15.225077085068197 2.264705053668325 -0.0733015877271443 )
( 15.067048706741096 2.395417262570404 -0.0849529011410358 )
( 14.901128480234568 2.535111436405677 -0.0945542117772012 )
( 14.741822427614045 2.7013471674670053 -0.0990226042539958 )
( 14.580698111597597 2.8782744618506624 -0.0999532590540201 )
( 14.419115068473277 3.056378065123852 -0.0983910983034338 )
( 14.266675814682724 3.221013461789198 -0.0939470481326424 )
( 14.117884776545145 3.36058475798541 -0.0879533942842305 )
( 13.98025161591808 3.4815617791824103 -0.0806290796735219 )
( 13.84648334240903 3.588415239593094 -0.0723880132698876 )
( 13.715706911670914 3.6953246774946833 -0.0631529366157509 )
( 13.584894512219032 3.8135827535864486 -0.0527274419362508 )
( 13.454950596883542 3.945387455382709 -0.0415433443489304 )
( 16.11698557315399 1.5847768153159127 -0.0389553829495937 )
( 15.937516131836778 1.6427579596217814 -0.0398463766848559 )
( 15.729052438183832 1.7636879248310935 -0.044204584674152 )
( 15.53483620058565 1.8756342443750915 -0.0539303712332147 )
( 15.351558192440706 1.9773759374286757 -0.0673054801992879 )
( 15.175432277479132 2.0876690630572408 -0.0807419866406091 )
( 14.999336929462032 2.2106059188659954 -0.091907240073243 )
( 14.823407393347209 2.346669706332132 -0.1002360706001192 )
( 14.640865573096963 2.4919690482061805 -0.1054391733046821 )
( 14.451325872259089 2.6562066607146364 -0.1065425115247828 )
( 14.265137574522951 2.834189315843147 -0.1026337870881683 )
( 14.085812914542254 3.010152964963217 -0.0956712351462595 )
( 13.907167375825624 3.171798804520329 -0.0874054163651576 )
( 13.736978029816232 3.3083510163956418 -0.0781990368345735 )
( 13.58415069869837 3.423247596400888 -0.0687397044427551 )
( 13.431082124498484 3.5308736527510574 -0.0584660089364176 )
( 13.279308078459954 3.63831379341757 -0.0469617281650775 )
( 13.12772271352046 3.757633747518209 -0.0343033611284055 )
( 12.97458018288322 3.8936472112435263 -0.020669591757274 )
( 15.982600073534744 1.5272809052904046 -0.045281014161775 )
( 15.789464334920783 1.5877744830983398 -0.0500747121506858 )
( 15.570383012891938 1.7082043882847866 -0.0582077155068417 )
( 15.366381505924842 1.8150553884264964 -0.0703138314661286 )
( 15.17112506373738 1.9196549785935708 -0.0843813576309763 )
( 14.982731294267785 2.0261648115190085 -0.096815620024839 )
( 14.789525153699834 2.14248106717721 -0.1061786701793736 )
( 14.59019567923729 2.278906024628528 -0.1109877927734331 )
( 14.392199478978664 2.425071550644447 -0.1108862903217896 )
( 14.18372166405489 2.588916546615395 -0.1075264463014766 )
( 13.975660057356611 2.771114572020843 -0.1002242408503464 )
( 13.775843852516193 2.948377427941234 -0.0899029258703702 )
( 13.578312792415597 3.1036967290817343 -0.0784913739483726 )
( 13.392735274330594 3.2382423649650542 -0.0666698101194153 )
( 13.218011120013388 3.3514091967091084 -0.0549953850440085 )
( 13.042481621045468 3.4555521360808195 -0.0425788721210673 )
( 12.865585011037156 3.5611621488159 -0.0291331462029655 )
( 12.69007604539314 3.680370908435634 -0.0155501769116917 )
( 12.51406739046367 3.8218968652162575 -0.0019430653551537 )
( 15.859822998007193 1.470189481433949 -0.0530668314822158 )
( 15.659662784663942 1.5351161453838214 -0.0605469381653852 )
( 15.425228581875418 1.6514447814434483 -0.0719342609865703 )
( 15.214349514151923 1.7507085579750377 -0.0858573096864376 )
( 15.010372716477594 1.8515997302205265 -0.0989029274228733 )
( 14.805148779534775 1.9561633077607528 -0.1091429742870026 )
( 14.59545022688564 2.066487075838413 -0.1161383195936892 )
( 14.381573544285942 2.1955107815862323 -0.1172544184793904 )
( 14.164433229867203 2.345030658706945 -0.1129120044693141 )
( 13.940958466900492 2.5111056149830566 -0.1054898405265541 )
( 13.713312079014209 2.69099493732669 -0.0949153655663419 )
( 13.486743537066218 2.8714303062627398 -0.0815919123337418 )
( 13.275225471400566 3.022672623738229 -0.0677321980436102 )
( 13.073436084074633 3.1544303497525705 -0.0540252929745414 )
( 12.871836196041157 3.266618803422661 -0.040220907538016 )
( 12.669545434976747 3.366362574009989 -0.0268312780892504 )
( 12.468013900610035 3.471613825115502 -0.0138305361626774 )
( 12.27231174243921 3.593597062166437 -0.0014398544824566 )
( 12.073193923424885 3.74178626512714 0.010963150376767 )
( 15.746258552366616 1.4090104694668015 -0.0624189870948956 )
( 15.537031168926775 1.475646797441405 -0.0724094061468792 )
( 15.290283200449284 1.5899991428092255 -0.0858442011977565 )
( 15.07394641738922 1.681584289551196 -0.0997416587195106 )
( 14.859945297078376 1.7736979504272408 -0.1111225330991215 )
( 14.639744485290104 1.876116868462488 -0.1192163564065819 )
( 14.420260039195275 1.990791387510984 -0.1217433263055643 )
( 14.1923996605739 2.119420575734914 -0.1185838665088335 )
( 13.95691849101675 2.268402932645892 -0.1114204830445586 )
( 13.715215795385785 2.430927328111219 -0.1012287973999365 )
( 13.4692591006646 2.6042198315330363 -0.08771536383625 )
( 13.221795378600593 2.777423914305513 -0.0717798163591189 )
( 12.986736935009358 2.9296512084509136 -0.056318479994493 )
( 12.760042122136824 3.0651558017380163 -0.0413776872323063 )
( 12.532661697810642 3.174276263792297 -0.027035931101462 )
( 12.310501453952307 3.268295948232355 -0.0145222156159132 )
( 12.092340287658036 3.3735481116811243 -0.0030225644807748 )
( 11.875232278512492 3.504262960490068 0.0088884557344354 )
( 11.651931453572889 3.662036531924013 0.0227073973898303 )
( 15.640631593298304 1.3392868312187802 -0.0737075084394702 )
( 15.423365566874516 1.4058096589497413 -0.0856044907642958 )
( 15.172578891721468 1.5203851929659282 -0.0990885480512483 )
( 14.945698885547742 1.6110813674421092 -0.1117608974200092 )
( 14.722494518822298 1.7031539952054917 -0.1205122387293211 )
( 14.492683219243863 1.8039050666649992 -0.1250925152151374 )
( 14.260959949438496 1.9170581155413764 -0.1238200663546087 )
( 14.015904099058137 2.0405083108141127 -0.1175861672115067 )
( 13.762529213245552 2.181778404380904 -0.1083249055694752 )
( 13.505291437462684 2.3448488048140583 -0.095523826352969 )
( 13.237358435471958 2.520799011792988 -0.0793687462610097 )
( 12.970636879423912 2.687400483464294 -0.0622174017828493 )
( 12.709330868307264 2.836096083889195 -0.0459570859812749 )
( 12.452833699823367 2.9674620672690555 -0.0306335015021754 )
( 12.209208890796573 3.068093774271728 -0.0175522927665567 )
( 11.97514968146019 3.1621129043597347 -0.005618432090852 )
( 11.737577376643582 3.272268101787444 0.0066955675636969 )
( 11.493972836717266 3.40865266358314 0.0201569071576857 )
( 11.238460594418392 3.581151555659768 0.037122427229972 )
( 15.546004367892484 1.2625295836422437 -0.0859611571794779 )
( 15.327697787210086 1.3314695377420809 -0.0978423405689712 )
( 15.069145237612764 1.4460294923083803 -0.1102108527653783 )
( 14.832051216170504 1.5363947174106718 -0.1208707297826006 )
( 14.598637088928268 1.6279163071252871 -0.1265588460793142 )
( 14.36278188763806 1.72361680080392 -0.1273044695653726 )
( 14.118227105499717 1.8315849210933892 -0.1238008315019028 )
( 13.862995068189749 1.9520990307102848 -0.1162390028748655 )
( 13.591950841984929 2.0878042559063594 -0.1046704537563126 )
( 13.312587102939624 2.2488243944387563 -0.0897421447620925 )
( 13.021964129145934 2.424762476928958 -0.0721717193735848 )
( 12.728781520046349 2.593651085173467 -0.0538185866808808 )
( 12.444594495610469 2.741713277826792 -0.0370098298647251 )
( 12.17176945493081 2.861134172974881 -0.0225687802458556 )
( 11.91236694607406 2.955541554835316 -0.00989146421584 )
( 11.655340891256122 3.05537472704744 0.0032375633903075 )
( 11.392286974472343 3.1768508606743917 0.0173010504511161 )
( 11.117218694529976 3.3149241543055985 0.0331051992765792 )
( 10.820409242473788 3.49346051358571 0.052060804382753 )
( 15.463343725716072 1.1881256271634837 -0.0973708293383821 )
( 15.239148199335624 1.2604300937753232 -0.1083423698098782 )
( 14.963663340834945 1.374277746409408 -0.119660162557803 )
( 14.721779644925206 1.4569203923563558 -0.1277235296825535 )
( 14.4838054652104 1.5432789530357969 -0.1304547302775712 )
( 14.24183002973527 1.636202623031811 -0.1288423371780204 )
( 13.985084124645429 1.738944523275512 -0.1231319266701616 )
( 13.714126410865898 1.85849105871196 -0.1135862835864249 )
( 13.43009246727992 1.990903636671092 -0.0996589055178274 )
( 13.131088378174626 2.1444710983040167 -0.0834505472480567 )
( 12.814823107824276 2.3188647607345803 -0.0655368205021021 )
( 12.494908239358374 2.4854490176643416 -0.0466744674974756 )
( 12.187126799776909 2.632933230213183 -0.0295625110007654 )
( 11.902750538949586 2.7471626220423038 -0.0154000296312151 )
( 11.628482288044683 2.840000029298754 -0.0018779115708682 )
( 11.347212244650605 2.943110591158631 0.0127221802531147 )
( 11.050849819517602 3.0692593933949377 0.0285701839707689 )
( 10.735517810198944 3.2194086621237963 0.0462390206047246 )
( 10.406171053319632 3.4176533128201654 0.0650443250193475 )
( 15.38949930981573 1.1175500511365175 -0.1074697610980855 )
( 15.158693398800883 1.189646292138977 -0.117698758444241 )
( 14.872911397532851 1.30021672403448 -0.1272749342672288 )
( 14.625760362555516 1.373910439017567 -0.1327870077124962 )
( 14.383129263567946 1.4519044038232112 -0.1330819872424725 )
( 14.131377919556735 1.5484848779016176 -0.1293499015261749 )
( 13.8636760446411 1.64425947839562 -0.1217323620744158 )
( 13.575223827781164 1.7538421934506931 -0.1095875546417025 )
( 13.27370465804558 1.8884316516503592 -0.0941760556736595 )
( 12.956129331911134 2.0360515145040656 -0.0774769973217614 )
( 12.610229867886646 2.211221222426254 -0.058624580217974 )
( 12.262235237181336 2.3791205311445736 -0.0395682473281616 )
( 11.943591992688804 2.516426095885401 -0.0228908570289439 )
( 11.65081970759574 2.625882167338752 -0.0076858581882869 )
( 11.35795262951735 2.7221407538573783 0.0069040383401914 )
( 11.048970666915212 2.8284694357711557 0.0222505657601467 )
( 10.714465221415924 2.9570786733522443 0.0405987800318444 )
( 10.358381580861463 3.123906654459101 0.0582184931577513 )
( 10.016292106547658 3.361458619275365 0.0747207946009559 )
( 15.324789325159047 1.0487344824889917 -0.1156734229674666 )
( 15.084631364358057 1.115431166752743 -0.1254750454880071 )
( 14.79309873883158 1.2252843824468744 -0.1326332990815812 )
( 14.545219300319651 1.2953535381490806 -0.13563431315271 )
( 14.294824692865468 1.367863270500657 -0.1337996980116602 )
( 14.028423060167762 1.4591854347918445 -0.1279915181314525 )
( 13.748152469030012 1.5456479191209422 -0.1191623350240074 )
( 13.452144090667096 1.6517001659563115 -0.1057802740796979 )
( 13.13142224133246 1.7859832026553544 -0.0896188671756105 )
( 12.788959746794143 1.9243296742855776 -0.0724453642091338 )
( 12.42956356660284 2.0921599436739764 -0.0530731824569417 )
( 12.060751921114662 2.27037567812786 -0.0332487448008702 )
( 11.727462048389096 2.4031200290880186 -0.0156238106112433 )
( 11.417096691961326 2.5032015936717698 0.0004131256323749 )
( 11.095052703645898 2.6025631015022537 0.0152035316903129 )
( 10.747646875165884 2.7075743197660795 0.0314785746105114 )
( 10.378459795514818 2.845144377695792 0.0494228760131704 )
( 10.005024638593024 3.036065542253678 0.0646854784558123 )
( 9.66889048826551 3.3218151378121314 0.0802367389356415 )
( 15.264049951949758 0.9795954517655092 -0.1229312077693253 )
( 15.018354464604096 1.0419767467627414 -0.1311378149223494 )
( 14.72186040841587 1.1464374174892376 -0.1364378577570231 )
( 14.473806813075957 1.2126315500244844 -0.1373368323418679 )
( 14.21584257058342 1.2855528708643171 -0.1337671850672344 )
( 13.935904083206184 1.3705050576207365 -0.1265014860612266 )
( 13.647275276273266 1.4447488665181416 -0.1168523912666984 )
( 13.33770153551906 1.550217947602064 -0.1027398137241843 )
( 12.996013534069489 1.6842257810005947 -0.0854887886467153 )
( 12.633718586010575 1.8222221755031969 -0.0673696115253103 )
( 12.254857867193897 1.9774455315941373 -0.0468090088049279 )
( 11.87170809490678 2.138845064336931 -0.0264085031066354 )
( 11.522233525903674 2.2726636717899136 -0.0081841701055416 )
( 11.184136609063732 2.37749788676932 0.0081930847928118 )
( 10.831418033828472 2.4690442569512494 0.0226813678379657 )
( 10.454645971696111 2.575535337686448 0.038508734404914 )
( 10.058667843984376 2.724867242414647 0.0546633038207118 )
( 9.68543585730446 2.95525676548996 0.0677990611805775 )
( 9.335686486300094 3.305046737567427 0.0821282970781205 )
( 15.211242900061492 0.9084912995836804 -0.1293000906311013 )
( 14.962073700340705 0.9664642773775564 -0.1355705703149133 )
( 14.658198026687652 1.0613039352885898 -0.1389112959196507 )
( 14.408180646561515 1.127253199336203 -0.1379460554459915 )
( 14.142268037885987 1.1959940462339675 -0.1332720079162423 )
( 13.848869575480808 1.276848704957202 -0.1247594737791543 )
( 13.558415339382949 1.3511559251471943 -0.1143471938457783 )
( 13.234933564433394 1.4447714946248742 -0.0997826599494957 )
( 12.87071416506446 1.573787826673315 -0.0816664990149346 )
( 12.486411606570154 1.7153270148066038 -0.062218841808478 )
( 12.08107103261164 1.867159557342304 -0.0403902545443296 )
( 11.691144407252995 2.012740535185569 -0.0204653324350592 )
( 11.321124054730111 2.1359274857692565 -0.0025609082559215 )
( 10.951303638530952 2.241712619794175 0.0148578229344068 )
( 10.57755224176099 2.3355234390594624 0.0302473082326408 )
( 10.179670128860856 2.452465325890611 0.0453418740631856 )
( 9.764996538232056 2.6208615490992258 0.0594601188248759 )
( 9.382413090276795 2.8873119409080124 0.0713674979768226 )
( 8.938404547871622 3.2571272105845903 0.0809711554420805 )
( 15.169245343687804 0.8386269325911213 -0.1337097451120052 )
( 14.911756886480513 0.8873814796718595 -0.1385990151911043 )
( 14.601310435324642 0.9752289746918714 -0.1401714778402157 )
( 14.346089735478738 1.0395612814350836 -0.1376563971488468 )
( 14.072737053100337 1.106106503140665 -0.1321556961381627 )
( 13.768951498605162 1.1871948244034454 -0.1226915001626896 )
( 13.46646075496112 1.258404284155649 -0.1108415867585484 )
( 13.136192213972135 1.34107304901006 -0.0959497435298875 )
( 12.760368921368205 1.459452307211507 -0.0778881715027018 )
( 12.353794274106384 1.592126980122802 -0.0578665045334697 )
( 11.926810526928485 1.7461381964743594 -0.0363793790526152 )
( 11.521961009406573 1.8934933575333757 -0.0167274487262017 )
( 11.127269701983767 2.00573850063188 0.0020563278206499 )
( 10.7349820538763 2.1015330047277065 0.0196377004240472 )
( 10.33088061856775 2.2089642271018923 0.0370285940437214 )
( 9.912888307931174 2.3355460531923997 0.0528095009793855 )
( 9.493083157653365 2.52421422829393 0.0635292182643369 )
( 9.045573649127697 2.8210445897524203 0.0741730974984725 )
( 8.43602240978699 3.1477659207714344 0.0782875413387962 )
( 15.1306237953746 0.7643387161505526 -0.1372770861866984 )
( 14.870011969539233 0.8124644206341483 -0.1405883291827385 )
( 14.557654367964762 0.8932986800421072 -0.1408064855483724 )
( 14.293162722360073 0.9466360218801794 -0.1374408512439941 )
( 14.011747072974648 1.013391301965159 -0.130752468003235 )
( 13.70051734640652 1.0970627867858596 -0.1206129490588751 )
( 13.384254424160083 1.1600460518136535 -0.1081994240936963 )
( 13.04781045904432 1.2344841132297013 -0.0930244099685472 )
( 12.652709072712618 1.348010168343735 -0.0738592821917191 )
( 12.227884340615711 1.4751337747532345 -0.0530082874105628 )
( 11.784613194945049 1.6210735972624708 -0.0324160562895001 )
( 11.350547091569902 1.7646720619953309 -0.0121920050136732 )
( 10.94098210204236 1.8800930638173496 0.0073901317802333 )
( 10.54089066500044 1.9722352236522305 0.0236091150449491 )
( 10.109030576928758 2.082449047369847 0.0403125077737397 )
( 9.661599238641063 2.2179752820425147 0.0540113272095555 )
( 9.227999269248386 2.4232352829475783 0.0648789299640171 )
( 8.68411687464537 2.730716439331033 0.0739953541664725 )
( 7.827670293017 2.963947845954953 0.0721077538888965 )
( 15.095164107138697 0.6888688749524281 -0.1398072428377532 )
( 14.833381051294694 0.738561115016557 -0.1418450831391833 )
( 14.517514865484864 0.8165376667568078 -0.1408823210035618 )
( 14.248074231024836 0.8644974469021599 -0.1368892825353765 )
( 13.95644551571544 0.9254889519702578 -0.128989954394426 )
( 13.63220968571881 0.9950995232723212 -0.1177880008901485 )
( 13.3057508613531 1.0546727010704888 -0.1055954896901594 )
( 12.962933579038694 1.1247097562152963 -0.0909901393464199 )
( 12.541883917534529 1.23248596845577 -0.0701113724275145 )
( 12.098371399847156 1.3617504511167131 -0.0477311482438798 )
( 11.651158015194731 1.4989562238737268 -0.0280617355382182 )
( 11.203811250334631 1.6400283087719505 -0.0074733140051859 )
( 10.77684414655825 1.7603142325649164 0.0123669246739554 )
( 10.349235151759505 1.8462599956199717 0.0285769063823675 )
( 9.904485423584548 1.9492850520077 0.0435584646044462 )
( 9.438251262356994 2.093058814912635 0.0548482551134152 )
( 8.940296917884053 2.318385915593613 0.0647116439110925 )
( 8.3255269327047 2.6260548255083638 0.0693749038841011 )
( 7.072400137829024 2.6778134676991576 0.0626247078382524 )
( 15.062666240622198 0.6214570298169769 -0.1409408015501648 )
( 14.79623884094536 0.6656416886345782 -0.1421301816645777 )
( 14.47778688414204 0.739439742619652 -0.1404002847506983 )
( 14.206831312661413 0.7867076998101064 -0.13577312920746 )
( 13.90581765744721 0.8390340489542492 -0.1274517433072454 )
( 13.575345146354683 0.8957075497597315 -0.1158038421610457 )
( 13.238675603585008 0.9581705962967094 -0.1028500674868899 )
( 12.87736353699806 1.03134584091852 -0.0872897162518208 )
( 12.437276404221482 1.1257676999050643 -0.0658980643416179 )
( 11.97163122929346 1.2495310311511574 -0.0430197058375676 )
( 11.51759071441821 1.377929984146685 -0.0228549919851693 )
( 11.070904344353128 1.5026222826607054 -0.0037165037654643 )
( 10.62749467782664 1.6161999131891085 0.0150593476380138 )
( 10.170257206290206 1.7064115226709289 0.0326836928354651 )
( 9.702107222074252 1.807041785634852 0.0490337923279071 )
( 9.21546787307753 1.9563753676180191 0.0604828962518523 )
( 8.637129293548977 2.19336829529365 0.0669840918860755 )
( 7.83103544319409 2.440940092690719 0.0674212183835287 )
( 6.338720246271177 2.3555992970668984 0.0576884767147651 )
( 15.037274008098564 0.5533358353026068 -0.1413028097513654 )
( 14.765602719230907 0.5950853878256069 -0.1416825716327894 )
( 14.439809793779178 0.6635463624255132 -0.1394740137796338 )
( 14.166238629685942 0.7040946091353796 -0.1346032936587321 )
( 13.858925510520834 0.7546887471905414 -0.1258928102230815 )
( 13.527225657637691 0.8132676413663557 -0.114528517038508 )
( 13.186342816422249 0.8731123945673959 -0.101154887588769 )
( 12.803226662391388 0.938777279451863 -0.0836151072584528 )
( 12.351102289958533 1.027120344359664 -0.0619581741775395 )
( 11.876728739636166 1.1438240822103465 -0.0395298715441096 )
( 11.404685422554724 1.263759216680923 -0.0185086829635288 )
( 10.934748921710494 1.3694624658863337 0.0005728926589382 )
( 10.472506963663974 1.466954530344069 0.0175672555328277 )
( 9.997914383857704 1.5567989862642375 0.0341863704024367 )
( 9.5109032806493 1.6629207763738778 0.0503725667717177 )
( 8.984665266934522 1.8317801909760292 0.0606688610788943 )
( 8.34438661842689 2.061370012301884 0.0675716528524164 )
( 7.295547830531115 2.1914807606503106 0.066587898069902 )
( 5.706832133609154 2.0448442104237965 0.0529994177209771 )
( 15.01722450859497 0.4827315826452223 -0.1410668318442634 )
( 14.744517812882968 0.5247858029677909 -0.1410624096282627 )
( 14.40983239310853 0.5898890275327252 -0.1386552285578322 )
( 14.129008134191334 0.6233369789175568 -0.1332592924652977 )
( 13.814906634274216 0.6682346715881103 -0.1238849339347567 )
( 13.478708140325274 0.7247801510536791 -0.1123561386151012 )
( 13.132420503251288 0.7707857583838325 -0.0989961080298614 )
( 12.736918925403783 0.831730349854682 -0.0807906664897607 )
( 12.282010268793895 0.9286589329532582 -0.0592610687454417 )
( 11.80031771746784 1.0384714884219706 -0.037281319640729 )
( 11.304504468205929 1.1526479339968398 -0.0164844345602037 )
( 10.811476839832084 1.2423635535983075 0.0032819962888029 )
( 10.331499359323278 1.3256056853520433 0.0196950382800275 )
( 9.828888552327063 1.4096168515776557 0.0353913271378365 )
( 9.324653676110088 1.5167164568653773 0.0488991347480378 )
( 8.7403941021278 1.6955557149318623 0.0569373550448849 )
( 8.02342334634235 1.9006247540399697 0.0640127595344553 )
( 6.847397167872743 1.9429938189573848 0.0635441012942803 )
( 5.125961216415727 1.7314142305906843 0.0491391178903418 )
( 14.999509312785372 0.4216790700863147 -0.14049284117539 )
( 14.725095113328347 0.4585417730573545 -0.1401612549572684 )
( 14.385284713208671 0.515481283863868 -0.1377365628111238 )