/*--------------------------------*- C++ -*----------------------------------*\
| =========                 |                                                 |
| \\      /  F ield         | OpenFOAM: The Open Source CFD Toolbox           |
|  \\    /   O peration     | Version:  2112                                  |
|   \\  /    A nd           | Website:  www.openfoam.com                      |
|    \\/     M anipulation  |                                                 |
\*---------------------------------------------------------------------------*/
FoamFile
{
    version     2.0;
    format      ascii;
    arch        "LSB;label=32;scalar=64";
    class       volScalarField;
    location    "0.0063";
    object      k_LES;
}
// * * * * * * * * * * * * * * * * * * * * * * * * * * * * * * * * * * * * * // 
 
dimensions      [0 2 -2 0 0 0 0];
 
internalField   nonuniform List<scalar> 
13597
(
0.2035574181019495
0.2014195279846503
0.1961242443369
0.1913955016291193
0.1889871096373777
0.1872067706706143
0.1852836446595355
0.18384224423393
0.182892132851781
0.1822626372593017
0.1830703873672144
0.1850031125288948
0.1871445747883001
0.1901574398535462
0.1939673658553132
0.1982220587145623
0.2026786422446176
0.2065352659570131
0.2101421890227234
0.2147130710431459
0.2124750546238706
0.2056177413685967
0.2012479389692321
0.1988898498124641
0.1964698550708691
0.194322562897317
0.1930295893042642
0.1924201396528929
0.1917166448054119
0.1921203309351239
0.1934189121303351
0.1947557980888163
0.1970408025130498
0.2005106515057645
0.2036986110956036
0.2062553937618161
0.2090744881737145
0.2121996114761176
0.2200077718465332
0.2168991506872795
0.2089912884348959
0.2038539592834119
0.201420453149363
0.1994465651934822
0.1972841891299451
0.1959845446133187
0.1956784126234534
0.1961528886855657
0.1972544094981827
0.1994376046348514
0.2022229727624331
0.2051848253609212
0.2085228854279909
0.2114940427241837
0.2140722308542676
0.2167374473976316
0.2193725372491356
0.2203141776304907
0.2164424242611608
0.209124975722024
0.2052786809416523
0.2042508468971884
0.2033048320024419
0.2024168847217528
0.2028542418785021
0.2038209489588843
0.2053710813202985
0.2070275891092957
0.2096199390908114
0.2124168046978232
0.2158068685596697
0.2191969321735354
0.2220810079643765
0.2250239238687574
0.2283232747998166
0.2318390702228696
0.2190743796247935
0.2147275715576486
0.2099834061343728
0.2091079847760484
0.2092316602426286
0.2094571464601724
0.2100262316712277
0.2111091612475414
0.2123686299020246
0.2139132294803868
0.2163897458701015
0.2200203686825979
0.2240936093704622
0.2288578377990511
0.2335839889014332
0.2380132173728309
0.2424187119731758
0.2470941794351981
0.2521308607559464
0.2183048730531352
0.2144057506060476
0.211850497990483
0.2131734250371989
0.2140231006717192
0.2151729329757029
0.2160304066531802
0.2173938511421003
0.2200597822543714
0.2231735739224013
0.2271104559614661
0.2321778195893641
0.2383620235830914
0.2442552919611198
0.2502386714641909
0.2561556164646331
0.2616500146632134
0.2668693981487726
0.2725915721954283
0.2181267164381979
0.2154836498648079
0.2148134194986239
0.21656679319729
0.2176581086994994
0.2192371461674789
0.220656800586716
0.2232627322439679
0.2280175651501307
0.2333020861501692
0.2390790333369884
0.2459989928937838
0.2533059373532504
0.2599687568835729
0.2668259627073349
0.2732794799768992
0.2792051603788795
0.2850953082877197
0.2913494509787567
0.2192851352092775
0.2177636197771576
0.2179336970256007
0.2196322092548502
0.2206692916511573
0.222158431839844
0.2256926686410481
0.2308210818490718
0.2369937209313685
0.2440099581763188
0.2516645380172467
0.2599393562034504
0.2677152428867608
0.275071463500421
0.2822322937339366
0.28891512614982
0.2954461103995722
0.3020949416211743
0.3088504731027531
0.2205449065226425
0.2190277204848737
0.2191299833289864
0.2210103968496311
0.2230710404263798
0.2258773850677949
0.2310274687209784
0.2381869920110186
0.2459808020456185
0.2547413783821157
0.2635026128549528
0.2723950145374945
0.2808232224387673
0.2890930376132779
0.2969347813852296
0.3042527836959821
0.3113446842291852
0.3186162364697574
0.3260746832859926
0.2218443478262418
0.2194306706194916
0.2187595616124955
0.2213611934334245
0.2251678981444084
0.2301182389717224
0.2366084025435132
0.2454784733224777
0.2551007642125992
0.2648071523532362
0.2745585859157777
0.284045854780918
0.2934708955000027
0.3025932883478683
0.3108607006654802
0.318870141374151
0.3268668531430401
0.3349800259544113
0.3433222416438139
0.2222428969513789
0.2183084285120717
0.2181034871563092
0.2219031200281726
0.2271859903901343
0.2345609708511677
0.2434662712433642
0.2537307349118218
0.2643493968454252
0.2744901284450662
0.2845583404542751
0.2949853951258353
0.3050996188984055
0.3147709524900639
0.324099799344103
0.3331068241980328
0.3423525761182788
0.3516849315114268
0.361524357395282
0.2197755008232941
0.2150700171449227
0.2171421578606095
0.222679523816146
0.2298997010599797
0.2394634440271584
0.2503544288283956
0.2618807830076941
0.2726900647355085
0.283042388499909
0.2938113470009955
0.3051681133994505
0.3158986850811028
0.3265711337835249
0.3374855952505686
0.347924827132503
0.3584383120834042
0.369747191349275
0.3822351490832302
0.2163639411460817
0.2120125045411874
0.2162562013190347
0.2239263340056355
0.2334744692362412
0.2447443952974509
0.2569420662926207
0.2693425938936951
0.2808289906310983
0.2914915369166695
0.3029695519224788
0.3149440845180674
0.3267922297895374
0.3391415431606239
0.3512736598923311
0.3631516506661325
0.3761266544585002
0.3905872349103726
0.4062635851388579
0.2133286274142737
0.2096416711050831
0.2158028428697399
0.2257533994556924
0.237761781983474
0.2506756989657268
0.2634150638738795
0.2756244540074641
0.2877175147752298
0.299313379340505
0.3111498589283659
0.3243481323268571
0.3379448129770571
0.351612449570276
0.3653715955833179
0.3799196326104895
0.3964139025727645
0.4144192198042858
0.4339987236444059
0.2094469809772879
0.2070058893316489
0.2166698842062455
0.2287825005913386
0.2428276448387231
0.2564898847839461
0.269403792339899
0.2819593832054677
0.2941205647608553
0.3062878197051886
0.3192245915915384
0.3340054936560443
0.3495473941584538
0.3647567607950311
0.3808360529916053
0.3989326476231681
0.4191879444403797
0.4415738994139782
0.468836122615667
0.2052803511300397
0.2050671037007158
0.2181471362118989
0.2321740874140268
0.2473807690483929
0.2616421055939714
0.2750146531456971
0.2879560084548104
0.3004479912357236
0.3131303032900284
0.3277687869119178
0.3444665994926308
0.3614650886710812
0.3787655844334324
0.3978345838952465
0.4193995318478056
0.4441933073933574
0.4745838040088496
0.5159274264091999
0.2015297983679238
0.2044542238474501
0.2205116222029271
0.2357266318890126
0.2514094615452443
0.266512696448065
0.2802499234471479
0.2930983915339449
0.3058675298063035
0.3196741409339707
0.3353559781752033
0.3539804220980392
0.3732654775236677
0.3931064707706196
0.4158071627506174
0.4417958079204629
0.4734426561215148
0.5169117294836122
0.5735220415957244
0.1988105634627555
0.2047181119539412
0.2233548608749537
0.2395066022660233
0.2553635037857863
0.2708712255457994
0.2845341133042416
0.2973821384899796
0.3111236130154957
0.3258458483011069
0.3427663398808952
0.3634178716441417
0.3854650054591594
0.4087621390521386
0.4352873189928921
0.4665648532946079
0.5096709238891343
0.568925479833733
0.6269318248966231
0.1977484184025163
0.2059737435229596
0.226501505044958
0.2433330807915724
0.2593413154432701
0.2751220689684104
0.2883621548891868
0.3012827010312383
0.3159747055496229
0.3318415980646143
0.3511493738754744
0.3735776216151257
0.3982808148119141
0.4257272096352756
0.4565276561733107
0.4961361629539492
0.5542330613715332
0.6280740714699403
0.6696210499107615
0.1976544599799955
0.208014669807125
0.2299885978667329
0.2471892834275799
0.2632176364120537
0.2789110669345587
0.292479859847016
0.3054724619162208
0.3202727862916694
0.3376692049535866
0.3592193477548296
0.3840415740137131
0.4117848821469204
0.4426970614405442
0.4808905990964179
0.531810494664533
0.6057642502807677
0.687666277326121
0.6989282708269624
0.1982472521471358
0.2100957781707239
0.2325001165329219
0.2501324232700839
0.2664627668519198
0.2819534473810254
0.2958781294195397
0.3090370678973724
0.3245248138388203
0.3434553397485563
0.3670509775693462
0.3952610733961641
0.4258111310808465
0.4597581915148601
0.5066779857896766
0.5731051863679953
0.6626263184959353
0.7412880578727161
0.6944997222487191
0.1995888519202179
0.212466394509605
0.2351589655362941
0.2526512211660369
0.2694226134456868
0.2852928300446659
0.2989615284412492
0.3119729022069015
0.3287408886968275
0.3494759730341244
0.3748116351638151
0.4051285773420375
0.43874965495861
0.4789208268798456
0.5342924907956234
0.6178566461197044
0.7196142258333778
0.7840143241028326
0.6424855062627616
0.2012776232513485
0.2153171398440769
0.2380761790514899
0.2551336430920352
0.2717917443622244
0.287675135428585
0.3019494348772675
0.3155252143823085
0.3331679888938808
0.355930660015787
0.3832099864534278
0.4149918136229862
0.4515564341240675
0.4986384623524609
0.567302303723644
0.6669905422281395
0.7739532715471139
0.7923759805616944
0.5837644347796208
0.2033696230896194
0.2180661471273915
0.2410108844040552
0.2577940489999856
0.2737719862213237
0.2891782824455973
0.3038701518430725
0.3185270219457098
0.3370512134582669
0.3612278248786504
0.390919254220042
0.426127997381711
0.4665987327225821
0.5203054244554935
0.6030106869051736
0.7172489942507507
0.8229930535758562
0.7753089563942869
0.5296350529350258
0.2056982658051402
0.2200818421444811
0.2431166171033835
0.2600370036787429
0.275566128591906
0.2909531426921927
0.3054828503753122
0.3207208101586653
0.3402080538462567
0.3656701954318838
0.3980766069064649
0.4367740140864696
0.4818299949358634
0.5468511764474538
0.6411238283512404
0.7637246214161175
0.8570638432851017
0.7542795770987183
0.4710073737498932
0.207707555434663
0.221810459295166
0.2446957671682125
0.261617395188776
0.2772543939845215
0.2926714901965348
0.3072490060317166
0.3229345975420963
0.3434200715265105
0.3707093727937162
0.4051846844126531
0.4465643013967068
0.4970661247647364
0.5724774051820184
0.6787393822173489
0.8082634424426607
0.8637290321020921
0.7135015117386742
0.4267245360983747
0.2094398317221805
0.2234630109393987
0.2462914449800354
0.2629315224580454
0.2785936018594974
0.2941099713865785
0.308936833225467
0.3252671372415645
0.3468573089002311
0.3757454259028196
0.4120455240943679
0.4558956233906578
0.5121327955835171
0.595074676281306
0.7141931300003082
0.8475967616331485
0.8643730374861102
0.6695914529666366
0.3899345289258525
0.2110818208830062
0.2247548467435938
0.247353583494755
0.2644818112399005
0.280030462557679
0.2955177120177344
0.3105911817184357
0.3274219830483814
0.349994695230894
0.3809374823045066
0.4195774049044476
0.464824090123988
0.5262854137438361
0.6184142991304951
0.7521222564974775
0.8844704055433878
0.8757366578475808
0.6404911764258704
0.359450862152628
0.2121870341761798
0.2256143042055153
0.2478473340309089
0.265695258324536
0.2808840525978022
0.2961547630918106
0.311704889945583
0.3290776665571107
0.3529088613455118
0.3855811585849498
0.4256044432397242
0.4740858674278219
0.5439717951439261
0.6432851255145158
0.7861651280606032
0.9115414549087182
0.8737127616498069
0.6141353512143527
0.3400603559916004
0.2128630636630319
0.2260786475416909
0.2484182481471183
0.266448909477701
0.2812546591422699
0.2963284190488809
0.3122411484553035
0.3303233930662975
0.3557745260359991
0.3891693329229732
0.4300206648293297
0.4837476865928322
0.5597001642250605
0.6664315124257975
0.8152608433306121
0.9071340084144738
0.8385090631663239
0.5881419716853103
0.3285164268377875
0.2135852273818683
0.2266255083439181
0.2491538158640263
0.2670447686043447
0.2817774447345983
0.2965717922562556
0.312650844390359
0.3318388876247897
0.3584885785313423
0.3927645235354605
0.4351100507453366
0.4927304246591806
0.5710854970378465
0.6869602184651529
0.8412800396617495
0.8981503187590979
0.8015662213324045
0.5648268226471774
0.3201846313926397
0.2141489033216193
0.2271627158531215
0.2496993728595581
0.2670934390641159
0.281960781960834
0.2968465892997135
0.3132820217446191
0.333762502552436
0.3611321013274629
0.3963872747433494
0.4403502386710323
0.5005063404686009
0.5828818439872455
0.7117205183772599
0.8657580701928185
0.9056441868128152
0.7902560761917522
0.5451338529001417
0.3100959301941721
0.2142831409216818
0.2276938391449538
0.2501720525099225
0.2671191088557615
0.2821249314678391
0.2970660588188905
0.3138156020460961
0.3352611753739222
0.3635678975195959
0.3999967979185472
0.4455747128968174
0.5083826967027442
0.5940624846030842
0.7328622476079076
0.8886674832307604
0.9183782105772684
0.7889804867127355
0.5306359685383419
0.2986138220736999
0.2142802259668206
0.2279264240033223
0.2500097774883927
0.266945561263211
0.2824605809179818
0.2973810699993332
0.313867627483873
0.336027466738662
0.3656208593292244
0.4036888183395085
0.451417956979164
0.5162081758802147
0.6040466398388703
0.7486536744128391
0.9087761734327658
0.930634596308545
0.7892277281303979
0.5216643791689455
0.291397590304546
0.21441443585812
0.2280461742081956
0.2498386977665657
0.2666814650127933
0.2827569765565909
0.2977383816850678
0.3139772251373567
0.336516817219741
0.3670654534204392
0.4064640139636226
0.4560966042580825
0.5225155966224345
0.614349702870931
0.7643930164304893
0.9238794198072344
0.9370975870854495
0.7860162393715632
0.5142381801638103
0.2867205439825465
0.214509090352985
0.2280132423186397
0.2499514509416963
0.2668335979524348
0.2828454558656147
0.2976234899129828
0.3139505389893913
0.3369119185856002
0.3682732215507728
0.408312627659173
0.4593798956679249
0.5278187080630709
0.6236664117102461
0.7753341212712734
0.935102377861005
0.9436913494478408
0.7814741122002979
0.5058347484789542
0.2812082603921557
0.2145317884451894
0.2278734843513082
0.2498298531891107
0.2668843032332612
0.2829611348372139
0.2976786684374933
0.3141659426387773
0.3373521322810329
0.3694485580632628
0.4102746658772687
0.4625048263395468
0.5331141491607444
0.6313917862049109
0.7846749376112605
0.9437114041057968
0.9455059740683
0.7802909437659828
0.503309029576915
0.2768455350316812
0.2145142955029075
0.227917992683933
0.2495528551557011
0.2664015718475428
0.2825361066742786
0.2972795460684443
0.3144495476204794
0.3380782383862167
0.3708676797262074
0.4119198215236341
0.4652147119596651
0.5380848817108824
0.640597406748454
0.7950242302038093
0.9465205783913668
0.9434676621629656
0.7758541931853612
0.5015709582098684
0.2746176147277144
0.2141832629437555
0.2276056857571276
0.2490953319589275
0.2659847494742014
0.2821594864604348
0.2966326527168419
0.3141510599381157
0.3382398699047068
0.3720124435130845
0.4131837272728672
0.4672328295588086
0.5422333058030789
0.651098345903808
0.8079135662623856
0.9466623512856222
0.9383514926543564
0.7674080523819138
0.4961324860597124
0.2737448289839019
0.2136166000993531
0.2269723845257524
0.2484442072260052
0.2657218464032796
0.2818443732563133
0.2961775486558108
0.3138265020105668
0.3378104225751462
0.3721055478398956
0.413857617642154
0.4685375230947496
0.5448838085206036
0.6572189374398535
0.8175526506681148
0.9475454071292422
0.930670921018448
0.76181696525354
0.4932748137057123
0.273546321243184
0.2131857516797103
0.226442811508117
0.2481526083744953
0.2654461714385692
0.2811836181079639
0.2955941185734324
0.3135369492574484
0.337653588428037
0.3723491429779555
0.4151255457832979
0.4700443532841432
0.5477678525335902
0.661817498408776
0.822023300639578
0.945720743257464
0.921900801919603
0.755367260474816
0.4900847481067586
0.2734828214565676
0.2129309571733473
0.2261244936227623
0.2482524366582307
0.2653780237103476
0.2806457577662559
0.29528705614529
0.3135075927899933
0.3378342390967585
0.3732124457808645
0.4174455139968917
0.4722161523926942
0.5506624760794296
0.6660907015482054
0.8239755689036221
0.9443251438358672
0.917942732012008
0.7489876508094887
0.4843435767787639
0.2720707592032127
0.2127640551182666
0.2257151437117641
0.2478229603521566
0.2647464852935695
0.2799476609241285
0.2950880787280858
0.3135433104894596
0.3377989049108399
0.3731046973289985
0.4185283749071675
0.4739391541527464
0.5519123773894969
0.6669758733722864
0.8270433642269335
0.9481471175145536
0.9172656756287328
0.7435092528426974
0.4790688049446109
0.2689530038298975
0.2126789965937291
0.2254728307639876
0.2472557796967464
0.2637066115241075
0.2791060970667137
0.2948276370302003
0.3133066050247795
0.3377496347466342
0.3734230528088142
0.4197093942675532
0.4755825721520569
0.5539958263167918
0.6688988341127193
0.8301280300470048
0.9454766665875288
0.9094944460825124
0.7373715148785114
0.4754172334556344
0.267249114425786
0.1421641735776453
0.1433186377581143
0.1463520416131219
0.1522941116926442
0.1583434732576466
0.1633759146966836
0.168485814044604
0.1723202514627969
0.1752910967804433
0.1773333005201152
0.1784219617451426
0.1789002858950621
0.1778227585893812
0.1753141164729247
0.1718188492315576
0.1675058061948575
0.162658610764103
0.1574107299168234
0.1520762918057763
0.1501697494217768
0.1547096760111071
0.1611301471963275
0.1702573871636707
0.1783008707697522
0.1839103253659833
0.1887755273081738
0.1916387167037698
0.1918721153550076
0.1907912098920026
0.1885096205967162
0.1852752817040158
0.1812416110285297
0.175610668411759
0.169251774473805
0.1634793057856161
0.1586634794886149
0.1545795662960586
0.1509200868019387
0.1652378344595582
0.1736274074964508
0.1838843565413652
0.1946613193842639
0.2023816479305641
0.2072064961387382
0.2093121248660748
0.2089148012447384
0.2061704333336527
0.201665038634575
0.1954012921993459
0.1881769579598175
0.1806323470416627
0.1738891907567535
0.1687942702657577
0.1654883289191528
0.1634491650636906
0.1619754918638502
0.1612012422434703
0.1846805272345252
0.1949778784817968
0.2056201962792244
0.2151334707265234
0.2199307524642103
0.2217382026689827
0.2204246079961228
0.2159421667661648
0.2090894174728118
0.2004987428803458
0.1917356389927419
0.1835965007842719
0.1766889431576154
0.1728884632792202
0.171406752727889
0.1716224497889552
0.1732961040345849
0.1761172891545472
0.1803068685455704
0.2017226042432019
0.2113706938205112
0.2201318061537331
0.2266206037144301
0.2276523283361952
0.2250507623451694
0.2204221098658803
0.2127680093102981
0.203857611342403
0.194735313808211
0.1868662417527796
0.1818732175431126
0.1796867455097057
0.1810873689884154
0.1844304723803376
0.1889280357928507
0.194540452696965
0.201020583756046
0.2086106379338167
0.2125044135441426
0.2197719479842258
0.2259729689976456
0.2292111463163171
0.2269573312851417
0.2214653399511228
0.2145379172581084
0.2058138982116344
0.1979553191032798
0.1914779353727712
0.1869828836215368
0.1864645836757604
0.1898058219466023
0.1954529409691844
0.2021513107380144
0.2092777941739529
0.2161792577810685
0.2233961329207476
0.2312202880073628
0.2182375857928385
0.2220494007725771
0.2247622531354923
0.2261097135537811
0.2223319801186597
0.2158277461518861
0.2084380800768478
0.2008818461615854
0.1954791406107943
0.1923441854639195
0.1922320276224452
0.1959324122587916
0.2024677086330623
0.2103374944449593
0.2183771842878957
0.2259424555209245
0.2327674362380521
0.2396830038294445
0.2466957866656021
0.2180248151909953
0.219224810482792
0.2213299771124083
0.2210272041495745
0.216327584079723
0.21001347175521
0.2036380618529546
0.1984565056740883
0.1958029688072758
0.1961146508491296
0.1998133675798921
0.2067891186872991
0.2149162764462775
0.2237407491137285
0.2322075545173232
0.2395975420512098
0.2462598932523294
0.2530680533266889
0.2597481209264317
0.2154640261425481
0.2153170088663378
0.2168615107673717
0.2159224371290116
0.2113233419204498
0.2060827679490713
0.2016131290640466
0.1989771845208249
0.1988084962280321
0.2021078257839445
0.2084612282047261
0.2172203714118755
0.2269153324276488
0.2361013884032763
0.2444495948955418
0.2520667482421767
0.2595995579342594
0.2670496306823017
0.2737750119916201
0.211482061239082
0.2109247879971292
0.2126124677643722
0.2120248767218403
0.2079556032160184
0.20436200124815
0.2019822183713077
0.2016673904455411
0.2037597228355392
0.2095653704006071
0.2180436325866561
0.2277102480905617
0.2381261562448945
0.2479299375093803
0.2572036575860021
0.2659026142195888
0.2746656441760585
0.2828952468519102
0.290207702814545
0.2063555329854554
0.2066377038181265
0.2092002105531732
0.2092735435158658
0.2067186792852905
0.204186979129864
0.2033349190232628
0.2050758331350602
0.2094683363198225
0.2172597212227448
0.2277124519719616
0.2389501265955799
0.2501102906350885
0.2611051311129794
0.2716377309368898
0.2814704444618665
0.2911248844107583
0.3005828242155779
0.3094258838482978
0.2022185538779528
0.2031998832673123
0.2066949353419039
0.2073030152175644
0.2059385552864389
0.2051155852692433
0.2060652363220016
0.2096064462342539
0.2162328144207967
0.2256753873223539
0.2381521647692431
0.2511428631989265
0.2633379782466662
0.2756738367341804
0.2871908892722114
0.2984925452565338
0.3098235018682325
0.3210933961845646
0.3319363904554799
0.1987877842815147
0.2000757814028944
0.2050966342417401
0.2069139603486527
0.2063145903135061
0.2069138727437644
0.2096007053931598
0.2151286351858178
0.2240296027603369
0.2352475990526861
0.2488060932583716
0.263587438437876
0.2773624713839328
0.2909667128936896
0.3041013103251041
0.3172210025987391
0.330994563847467
0.3448328706439101
0.3583327782833098
0.1962936757648008
0.1987299651502362
0.2046063056474917
0.2072118792652442
0.2079066891152013
0.2092064199787352
0.2135277703778275
0.2217851070777609
0.2329752957638795
0.2457359978137797
0.2604671971166102
0.2764418141733586
0.2917052703283352
0.3066714356260599
0.3221488707868705
0.3382685799758871
0.3544675264444854
0.3713064612487052
0.388694769751262
0.1948816307174304
0.1983689072200118
0.2046220412071389
0.2074055660077448
0.2094916160156861
0.21251210380843
0.2184218385037063
0.2283698385512117
0.241070058766082
0.2556670485495871
0.2720869369703168
0.2892873010763857
0.3063995733243477
0.3235777350168193
0.3412663085893103
0.3606864584559291
0.3806304168699548
0.4015716590486398
0.426212321259485
0.1940277178286969
0.197941494590648
0.2050518552951837
0.2083450864657453
0.2115845947572213
0.2162514838009977
0.2239568736667458
0.235378151431885
0.2488627114520675
0.2652910795223906
0.2830452706206849
0.3021551825329735
0.3219697789802488
0.3416336211576205
0.361884186936661
0.3838692946040712
0.4086154871048906
0.4370613426904382
0.4728969904183083
0.1938411227028996
0.1978762099635318
0.2058460256344403
0.2096750070814995
0.2138979484720465
0.2197603183163894
0.2293825517259115
0.2428067396789874
0.2578054551950925
0.2750783798656799
0.2938668270054249
0.3152950117113776
0.3374256819233585
0.3595453642931766
0.3835698515299926
0.4094337367150402
0.4398468776237426
0.4791753613514353
0.5256790912127798
0.1940956289453273
0.1984185707073284
0.2070426384839137
0.2115712516768825
0.2164014384795893
0.2238817749034088
0.2351166844807268
0.249725033933298
0.2665871409892019
0.2846657744382035
0.3049171577118697
0.3287328392071724
0.3531602609841915
0.3785806064733162
0.4061497000913958
0.4374204296352558
0.4769637132510413
0.5305995471923389
0.5796835208807614
0.194307088964397
0.1990360104756738
0.2084677624700399
0.21388267684623
0.2195260356307841
0.2280340308530166
0.2408131421594682
0.2568338436860335
0.2745938708037405
0.2937880256131651
0.3161192485577183
0.341686052066755
0.3689802904178691
0.3980284913750425
0.4293152571149288
0.4684456430586874
0.5206839576069405
0.5859760887258325
0.6215234317117813
0.1946484892001994
0.1996056270315067
0.2095688011008667
0.2157597046866373
0.2228023664132232
0.2326821622854007
0.2464136131059741
0.2635493791165253
0.2822616414287504
0.3027237835051655
0.3274428262390627
0.3553667722305314
0.3857640668850218
0.4184836827525142
0.4547553843987797
0.5028557651607383
0.5710582456137064
0.6395407950424915
0.647681193747874
0.1945510271355771
0.2005938825034247
0.2111177765372289
0.2180643772372242
0.2263694558701623
0.2379645265516721
0.2528337001529066
0.2701322923884208
0.2893335836135662
0.3114095689222129
0.3386618302728351
0.3698659855608999
0.4029606011933507
0.4397995534703154
0.4834605046293192
0.5427573596164086
0.6239766180952391
0.6896346722598401
0.6485226314708566
0.1947038846363188
0.2015097830333823
0.2131113537853156
0.2208798883094407
0.2302473073950169
0.2428287110893293
0.2587917199403499
0.2766457312178323
0.2964040461538721
0.320066702773449
0.3492860917851478
0.3832833663561705
0.41935733905403
0.4604787340138161
0.5116046607046356
0.5865836621067547
0.681933499913626
0.7403528692376191
0.6057968797808567
0.1950817767255982
0.2020367774185634
0.2149976268269432
0.2238869241322897
0.2337300963416027
0.2470914966916224
0.2638233660189275
0.2823776934615462
0.3035684487747678
0.3289865703201622
0.3602885799406514
0.3968608705748735
0.4367964966813249
0.4827779035724507
0.5450306636400422
0.6365101110072455
0.7390033600595577
0.7510726826961095
0.5509693661515298
0.1957372547347567
0.2032483245118076
0.2169066829753619
0.2268106550220007
0.2373987701167589
0.2512938346247017
0.2681542166465722
0.2870204245250682
0.3096464990426282
0.3374839004429563
0.3711153861928378
0.409892150117761
0.4539385084129047
0.5063439899519613
0.5820930589433658
0.6892668847221879
0.7860686629332926
0.7314811866072408
0.5058609198061964
0.1966107251545233
0.204788117273511
0.2189758477184639
0.2293950919585379
0.241159966695766
0.2555049240131194
0.2721041962561634
0.2914309487016699
0.3153706819296516
0.345634616862375
0.3820053936244131
0.4231328770174968
0.4707707517861546
0.5328251871362905
0.6213748016386759
0.7359175447461007
0.8176924850591704
0.7190825019681842
0.4595911899478207
0.1971700458045773
0.2055897128369355
0.2208395601871041
0.2323401164758896
0.2449142623786597
0.2594818512690318
0.2764282505037516
0.2964736987286649
0.3213239021478666
0.3532772499184435
0.3919224923959995
0.4359992233059043
0.4864636727773176
0.5575273752363387
0.6595125581054275
0.7766679573262104
0.8180469618521877
0.6781256063144913
0.4157534783517578
0.1980129558875993
0.2066108467044415
0.2227045041534318
0.2352759072256379
0.2484205909737107
0.2632380158438836
0.2809514226717546
0.3014763701009968
0.3270364962909558
0.359990971359131
0.4011656339853708
0.4487946284193539
0.5030523757888371
0.5801092178364761
0.6935129180015029
0.8143344972349422
0.8201119068447175
0.6395005847087348
0.379360546957957
0.1988829796318082
0.207896675693319
0.2247160888224593
0.2377332905632418
0.2514398239916238
0.2669102856293128
0.2848476429864311
0.3056470402778309
0.3321525411065066
0.3663021073252489
0.4099951556735092
0.4600624900358582
0.5205526583568763
0.6065547551655427
0.7316350056723665
0.8547920293295256
0.8367619828232081
0.6213447485567011
0.35585418836682
0.1995731726552235
0.2093355910625434
0.2267257828679328
0.239791612564761
0.2541189526881468
0.270189864197186
0.2880683190347282
0.3094750950272287
0.3369502743344982
0.3726446567796677
0.4170644182928157
0.4695447013219468
0.5377059133849187
0.6317921594581358
0.7635836027810075
0.8758232803781705
0.8340462978458472
0.6014280749148667
0.3400624777371225
0.2005560848721277
0.211217826063096
0.2287767862223569
0.2417853149590866
0.2562038286397683
0.2726370377617221
0.2908434784963419
0.3132348828912144
0.3411210856179156
0.3780249979823764
0.4243024400398215
0.4811518107762592
0.5559329110034297
0.6533197182211518
0.7893434544591781
0.8748262202919557
0.8015997722762009
0.5707301134581073
0.3243734649668243
0.2015110162960292
0.2128461803430146
0.230623411220071
0.2437696349473179
0.258247546192915
0.2747216269594112
0.2931334180385972
0.3169273708594131
0.345230119097284
0.3825497959201018
0.4308632346743597
0.4908605408216901
0.5685937635061533
0.6735755117987188
0.8183703000619522
0.8756093802312734
0.7709201589278388
0.5415840767822262
0.3103634693009636
0.2024432588952046
0.2141107707107605
0.2326865727811213
0.2458599566558488
0.2604703511443758
0.2771131195754001
0.2957634356283743
0.3201688685346026
0.3495119122584395
0.3878774130617585
0.4373521456793403
0.4990635216966475
0.5792697222311071
0.6954908071664457
0.8463818293021997
0.8867533303101515
0.7635969262330973
0.5238255461346022
0.2985089795387843
0.20391385597677
0.2156244759974206
0.2350940729792191
0.2483449673083343
0.2628221534064854
0.2794994129779762
0.2983341492433251
0.3223190792628453
0.3525574569378713
0.3928882731189091
0.444277575164254
0.5084490037680737
0.5925704969000664
0.717080778765376
0.8692272726527477
0.9033107895541436
0.7643533845690935
0.5109665807845082
0.2924005241076784
0.2051013819377191
0.2168780053490725
0.2367421882740526
0.2504700588590741
0.2650315332910222
0.2815714264332388
0.3006461414783403
0.3243063506844659
0.3550748859398029
0.3964368367857339
0.4485479346320888
0.5159682038721126
0.6033312160187521
0.7345983741810143
0.8856146409174821
0.9134687087688316
0.7667822045630053
0.5014374731974107
0.285832811861497
0.2060148663375018
0.2177216034502514
0.2378498716296953
0.2522815021723034
0.2672591918542847
0.2837139144465535
0.3026911519714038
0.3264573230514591
0.3583228649554176
0.4002619808104902
0.4527881189256553
0.5228611457166427
0.6109774113955364
0.7469558204886524
0.8986530022328717
0.9230046449961768
0.7699194542131546
0.494180929186708
0.2788392940716427
0.2070009566389
0.2188271534966398
0.2393080690199872
0.2542792377851515
0.2694826000461922
0.2857528211562098
0.3044283139165675
0.3286303173860271
0.361636082168775
0.403967015026107
0.4580720538326447
0.5290117056226206
0.6171414225442494
0.7586502259407367
0.9145443956715826
0.932247032665383
0.7670410403087743
0.4894534098860704
0.2763227744402537
0.2080021264010748
0.2201497537965291
0.2409354718238734
0.2561814780900314
0.2708690151232397
0.2875641354617718
0.3063806503655482
0.3305789658981739
0.3641810135866803
0.4067883912299481
0.4611920465957112
0.5334133343890791
0.6251290468464856
0.7708877719994656
0.9272073707345304
0.9377832697484532
0.7648214027070995
0.4877059167679567
0.2760868624107617