/*--------------------------------*- C++ -*----------------------------------*\
| =========                 |                                                 |
| \\      /  F ield         | OpenFOAM: The Open Source CFD Toolbox           |
|  \\    /   O peration     | Version:  2112                                  |
|   \\  /    A nd           | Website:  www.openfoam.com                      |
|    \\/     M anipulation  |                                                 |
\*---------------------------------------------------------------------------*/
FoamFile
{
    version     2.0;
    format      ascii;
    arch        "LSB;label=32;scalar=64";
    class       volSymmTensorField;
    location    "0.0063";
    object      tauij_LES;
}
// * * * * * * * * * * * * * * * * * * * * * * * * * * * * * * * * * * * * * // 
 
dimensions      [0 2 -2 0 0 0 0];
 
internalField   nonuniform List<symmTensor> 
13597
(
( 0.1733671142353354 0.0355479522758318 -0.0070871191000289 0.0787861040649875 -0.0501245382621968 0.1549616179035758 )
( 0.1754891929881394 0.0389409060461632 -0.0112702711404814 0.0780854947989691 -0.0494426327911439 0.1492643681821919 )
( 0.1805768377184419 0.0444584779517861 -0.0183593912266037 0.0759001588624995 -0.0469146627494999 0.1357714920928583 )
( 0.188738969937191 0.0508772070767841 -0.0260336112541479 0.0740641251465749 -0.0437822878915178 0.1199879081744727 )
( 0.1968773345678086 0.0549809013028319 -0.0309942478498067 0.0721651909437213 -0.0406094915856228 0.1089316937632254 )
( 0.2036507424517352 0.0565100533953833 -0.0325357184691011 0.0690830671844669 -0.036380465919923 0.1016797317050264 )
( 0.209692747039229 0.0568311443195503 -0.0325005021658252 0.0656434475282679 -0.0315522050176393 0.0952310947515741 )
( 0.2158440872244378 0.0560524251633916 -0.0309689360978394 0.0618045836794926 -0.025834376071623 0.0900358175639295 )
( 0.2216114014116692 0.0540661133227044 -0.0276424841514908 0.0580607671769299 -0.0194484276139781 0.0861120971149628 )
( 0.2259828198645007 0.0510649728312472 -0.0233709756104184 0.0549012579286661 -0.0130156334925304 0.0836411967254364 )
( 0.2303289638251733 0.0474433622915091 -0.0178802911951346 0.0523583654029162 -0.0058663070427307 0.0834534455063394 )
( 0.2344248155063266 0.043570415006704 -0.0120668197934124 0.0512429228059903 0.0011462144126624 0.0843384867454725 )
( 0.2372148787559281 0.0391366090375097 -0.0058976702383967 0.0509915354233802 0.007589231341498 0.086082735397292 )
( 0.2392062876007574 0.0342306604352704 0.0004705211557116 0.052068796602878 0.0137880595888477 0.0890397955034568 )
( 0.2402116986109028 0.0292843122570427 0.0059612887529313 0.0546770077681894 0.0189881703423456 0.0930460253315341 )
( 0.240501196602287 0.0244478570803014 0.0114904517476642 0.0580713816258784 0.0234326749519844 0.0978715392009591 )
( 0.2406352588469175 0.0197797445183169 0.0170676485500035 0.0624165806833647 0.027470128043203 0.1023054449589528 )
( 0.239282492204793 0.0156811444163495 0.0204202798421792 0.0674876942234895 0.0309062905453215 0.1063003454857437 )
( 0.2374815128390324 0.011975719944262 0.0219617674833657 0.0728744823535206 0.0338370284025227 0.1099283828528938 )
( 0.1738595670135466 0.0389277595153739 -0.0134054047748751 0.0799707871070367 -0.0491643200197899 0.1755957879657085 )
( 0.1759071183742196 0.0432288520596049 -0.0178183497788601 0.0779175217273685 -0.0477142630067514 0.1711254691461531 )
( 0.1802663427811996 0.051491269599945 -0.0241970954030483 0.0732300850040229 -0.044673841959479 0.1577390549519707 )
( 0.1871101630777358 0.0600086478309175 -0.029053676180047 0.0696940049149801 -0.0412699265087606 0.1456917099457482 )
( 0.1925713789837237 0.06424344387543 -0.0300939626767954 0.0661679856115678 -0.0376130629214058 0.1390403350296366 )
( 0.1966613783609643 0.0662295820783901 -0.0276748685255682 0.0623356476133939 -0.0327469693465807 0.1339426841673798 )
( 0.2000207230110283 0.0667022620317235 -0.0236476118275306 0.0589725717868506 -0.0273035179067141 0.1296518309967551 )
( 0.2024487951717078 0.0659856631769156 -0.0179347683984816 0.0563245184188726 -0.0216143540469247 0.1272858650179479 )
( 0.2045763252590171 0.0643954767348963 -0.0104635917571893 0.0544503365056015 -0.015285732866133 0.1258136175411671 )
( 0.204570414106684 0.0611322035015059 -0.0026326005861515 0.0536423035635544 -0.0090577466417435 0.1252205719405854 )
( 0.2032851642867491 0.0569377395527595 0.0054674380108194 0.0543370669132919 -0.0025190805771753 0.1266184306702067 )
( 0.2013986880593613 0.0522695288329182 0.0132254982599966 0.0566742668273319 0.0039809175118806 0.128764869373977 )
( 0.1978651202580859 0.0468789329686215 0.0193935785264352 0.0600442213209735 0.0095840996460027 0.1316022545985729 )
( 0.1943532341761562 0.0411844418662059 0.0235225372845224 0.0646041158660705 0.0144906681119806 0.1351242549838728 )
( 0.1920321850410465 0.0357805313578269 0.0259089100611557 0.0702236421623594 0.018614953849417 0.1387654758081231 )
( 0.1890223280462084 0.0307913398031892 0.0266602257298959 0.076035528659356 0.0223119173276661 0.1423393654856428 )
( 0.1861308543018213 0.0262832991453768 0.0262155217700645 0.0812977859622018 0.025369382740725 0.1450821472596091 )
( 0.1839523513718542 0.0223171344299161 0.0234943945683259 0.086617641205377 0.0278022559985246 0.1475789837701978 )
( 0.1821250127809864 0.0190140791567866 0.0192373130773198 0.0919834705427102 0.0301228145748009 0.1502907396285387 )
( 0.1703793203222297 0.0402576093400797 -0.0170309743761109 0.0818648778921791 -0.0441474191326105 0.1877713454786574 )
( 0.1711206149688601 0.0453559818408078 -0.0198424337845416 0.0796431835411733 -0.0416012313964234 0.1830345028645255 )
( 0.1730975300153132 0.0550783409872332 -0.0216721569064793 0.0740070290715557 -0.0382385451555015 0.1708780177829227 )
( 0.1762061443952462 0.0636386023947497 -0.0206788421032221 0.0696467414933042 -0.0347677706820507 0.1618550326782733 )
( 0.1775823679609548 0.0667231493118409 -0.0166006249821109 0.0665088216170363 -0.0310140170768496 0.1587497167207349 )
( 0.1786869705237514 0.0671068004767152 -0.0100686085085149 0.0635574185361496 -0.0265284453837037 0.1566487413270632 )
( 0.1783321344133626 0.0655438059734143 -0.0022109981974987 0.061386470614116 -0.021256526512435 0.1548497732324114 )
( 0.1763734828303202 0.0626306265008105 0.006179259207068 0.0606180658019 -0.0157073161368192 0.1549775405944172 )
( 0.174548511910837 0.0585783639560605 0.0142719119944168 0.060987755038401 -0.0097061924397608 0.1558205582976687 )
( 0.1723156482835688 0.0529047211009701 0.0213588622110159 0.0625863347363023 -0.0035505081692867 0.1574037943512602 )
( 0.1691767391131721 0.046358344825936 0.0263430730219631 0.0655367492667595 0.0020307256353577 0.1597953306164338 )
( 0.1664376493676864 0.0397956920388251 0.0287725481003208 0.0698755330358103 0.0075117197136707 0.162562026866206 )
( 0.163887503341492 0.0329888268891345 0.0279074177334314 0.0754324869196274 0.0125183607605393 0.1651259552637467 )
( 0.1619448201529027 0.0267952142431745 0.024486825828777 0.0811975405653587 0.016492776339352 0.1672272900035808 )
( 0.161657749958084 0.0219684343473291 0.0199514980803954 0.0863813663324593 0.0196573575091844 0.1690066545654383 )
( 0.1615524070420347 0.018107158924534 0.0141296968790146 0.0910405900611611 0.0222707656511388 0.1703950883451715 )
( 0.1618681977074806 0.0150459711971573 0.007784023910519 0.094787745727384 0.0240729321177499 0.1714885182736706 )
( 0.1633976655311851 0.0127143142100932 0.0005978268781506 0.097766852550165 0.0252179028694086 0.1723103767139131 )
( 0.1655174077880959 0.0111325306324451 -0.0072444793366568 0.1003321229329572 0.0259895325972226 0.172895543777218 )
( 0.1634825498304835 0.0410203790676852 -0.0157746578142302 0.0858638132297131 -0.0361104479872759 0.1912819922007845 )
( 0.1620681213132276 0.0472059577438588 -0.0152267861017844 0.0844371790574877 -0.0332246221102103 0.1863795481516063 )
( 0.1617305388710724 0.0562313279439217 -0.0119402367657151 0.0788797833917494 -0.0307555860249646 0.1776396291812261 )
( 0.1626280911879774 0.062538260084102 -0.0058236626705606 0.0746661207442533 -0.0279051032935048 0.1732631499510737 )
( 0.1621552138261809 0.0634002825327051 0.0018376233246506 0.0725879087364483 -0.0239262959108223 0.1737585712317477 )
( 0.161057610450889 0.0612053317892492 0.0100746992097077 0.07078283686927 -0.0192189309997682 0.1747692166847247 )
( 0.1588658145002443 0.0569227811186638 0.0181411879007465 0.0698217860872731 -0.0136705535139178 0.1761461688559882 )
( 0.1562339559757167 0.0513344269853351 0.0247656947492251 0.0703747958841913 -0.0074478100575749 0.1790997318970962 )
( 0.1539260490565432 0.0449658159999831 0.0289252343914674 0.0722015433589657 -0.0013945024504643 0.1815143055022597 )
( 0.152028758527022 0.0385557848014588 0.0305665127505657 0.0752294556374777 0.0047220206440494 0.1834839484760974 )
( 0.1501326849798817 0.0317644915423163 0.0287857381776931 0.0792091602005331 0.010401990291142 0.1847133330381763 )
( 0.1500601273847043 0.0256537157322743 0.0239586632906164 0.0838684031933272 0.0155751412733756 0.1853113476035911 )
( 0.1511064952232609 0.020669386588252 0.0165204420777359 0.0885602398849589 0.020218328649081 0.1851668742874263 )
( 0.1531054432500153 0.0168834637767162 0.0080821875885309 0.0930306393795114 0.0240916542423677 0.1854776544898126 )
( 0.1558833122509996 0.0150111634132652 -0.0001470907610004 0.0963215491828134 0.0268479092050455 0.1861890029132577 )
( 0.1588118490650746 0.0141946455791372 -0.0080615844004414 0.0987224289680593 0.0283216611984743 0.186627737895619 )
( 0.1624266983773521 0.0139859071887878 -0.0156586110071778 0.1004855360413843 0.0289731027668299 0.1871356133187783 )
( 0.1667979514528148 0.014653323785799 -0.0237133989380868 0.1016338326667439 0.0289158167448264 0.1882147654800746 )
( 0.1717223446861399 0.0162104042647055 -0.0324348164665037 0.1023461845304869 0.0276095967211246 0.1896096112291123 )
( 0.1551763422390873 0.0431028648105268 -0.0107437902444248 0.0927387124700715 -0.0276580411244817 0.1902337045404281 )
( 0.1528476800521621 0.0489690692599559 -0.0069688771897639 0.0908271556747173 -0.0251391205832215 0.185780307388418 )
( 0.1520607547481126 0.0561623130008792 -0.0005552610768859 0.0854130974111805 -0.0236287987919263 0.1824929601094524 )
( 0.151698424252684 0.059316674622141 0.0080422165948393 0.0817731362564161 -0.0202612062556567 0.1847444090429966 )
( 0.1496792995888599 0.0571722808824199 0.0158567717038179 0.0801903254653255 -0.0153312702344753 0.1885936954310717 )
( 0.1468793081509268 0.0531188437686771 0.0220345093560899 0.0793925321856731 -0.0092320677809279 0.1926424525837447 )
( 0.1442553822244952 0.0472180931928712 0.0267473730611466 0.0794826821531321 -0.0024666469451595 0.1963143989648278 )
( 0.1417634744732109 0.0406192517086185 0.0282660320638849 0.0812622009066604 0.0048581448921913 0.1991926471152112 )
( 0.1395079245300096 0.034509631818356 0.0270183063802629 0.0840917494615217 0.0119627990677496 0.201137585812518 )
( 0.1385053673632938 0.0292219170905194 0.0229042337601141 0.0875620751844185 0.0183025996365856 0.2017590164130614 )
( 0.139269274311752 0.0246739970369107 0.0159875205076091 0.0917034798208367 0.0243207534824154 0.2018067376076141 )
( 0.1422385482928545 0.021325953618689 0.0071554732274217 0.0960145396595703 0.0295140309944542 0.201787649412771 )
( 0.1463848225074717 0.0198255083924322 -0.0031849338017785 0.0995915820759631 0.0337329919069156 0.2022108141574895 )
( 0.151592236869531 0.020107519743494 -0.0131513006759843 0.1024541521060375 0.0364187670575743 0.2036692866225336 )
( 0.1569552529345635 0.0218319165545712 -0.0221635135385012 0.1043867125498411 0.0375615315116204 0.2058260123184617 )
( 0.1621052368233067 0.0244516701878624 -0.030526392664733 0.1056141773108954 0.037166122600042 0.2083070206114595 )
( 0.1674575693981904 0.0276746293660695 -0.0383611275745577 0.1062798053866699 0.0358036115216946 0.2111000491614911 )
( 0.1732491435493465 0.0315704124086019 -0.0462338720009268 0.1063915533673064 0.0334923826281866 0.214547661953743 )
( 0.1799162119349735 0.0363434641442007 -0.0543486198935591 0.1060554890470329 0.0291590907294544 0.2182900205298862 )
( 0.1471053063351856 0.0460406728976208 -0.004775025267767 0.1008289820921924 -0.0195652612727391 0.1886754576788923 )
( 0.1437997829936526 0.0511761512995022 0.0004534724620882 0.098205782032489 -0.0175222889175514 0.1868059361859534 )
( 0.1423777276509192 0.0556896521336459 0.0077686739246163 0.0922660869619556 -0.0159797515683227 0.1890571813680909 )
( 0.1407340428809797 0.0553906582329116 0.0155428223214196 0.0889945132902762 -0.0113220035295755 0.1966182939031416 )
( 0.1376027345164718 0.050938862192137 0.0209013243945783 0.0876959791848234 -0.004631636083857 0.2027474876421431 )
( 0.1345889342260874 0.0456610743551313 0.0237855063415549 0.0877798460898609 0.0032121011574721 0.2079770856354575 )
( 0.1311327463387994 0.0398927481096855 0.024237780925985 0.0890931608631296 0.0113776395375601 0.2118349061044313 )
( 0.1285423233110032 0.0343723473260252 0.0208783703159943 0.0922528760983541 0.0198733926872349 0.2139925028748432 )
( 0.1277328089448015 0.0300052965630477 0.015324657147785 0.0963804220594512 0.028336162989132 0.21600633350449 )
( 0.1285581222306545 0.0270997278452087 0.0080396893317934 0.1004726300849006 0.035543907231812 0.2173163955292474 )
( 0.1318155405724895 0.0262444958355434 -0.0007891053805273 0.104343715638366 0.0408036757191317 0.2180616557120767 )
( 0.1369803019103162 0.0270489233259011 -0.0112978387776341 0.1077230066322756 0.0442771015278201 0.2196523306361364 )
( 0.1434863941947611 0.0294074074176768 -0.0220034185295672 0.1105503939773093 0.0467857916202005 0.2226872589941124 )
( 0.1506782087113712 0.0334820830006369 -0.0313042799967534 0.1121547736416304 0.0467957788299546 0.2256776015692382 )
( 0.1576154810818359 0.0381880544570584 -0.0394583756792787 0.1132009699921813 0.0450801161872171 0.2296608918543644 )
( 0.1642752269104474 0.0433912395490638 -0.0465982808774639 0.1138797809104322 0.0424432760552218 0.2341562251083865 )
( 0.1706062270805899 0.0492020150982031 -0.053029370639816 0.1139878766068593 0.0386116423521823 0.2387059256389776 )
( 0.1771866910414062 0.0554598839445025 -0.0590631389099975 0.1136738813115985 0.0333974521024254 0.2428782239445406 )
( 0.1849674810620138 0.0624243919401197 -0.0652170029171478 0.1129937109711312 0.0262062534019968 0.2472219523577117 )
( 0.1381712639184688 0.0493232443785862 9.968249702711044e-05 0.1087766255267432 -0.0122172012043344 0.1893055434311835 )
( 0.134538399120599 0.0531928787464031 0.0052241523137358 0.1048421055656817 -0.0102350296125402 0.1915867950433351 )
( 0.1325001668196073 0.0542720490864784 0.0118725786974828 0.0982494661119447 -0.0074927586554631 0.1988772060656957 )
( 0.1288673203492314 0.0511718218874983 0.0170214092825658 0.095720789246909 -0.0010720582032975 0.2085454767984394 )
( 0.1246809332806022 0.0460576213043154 0.0190725544882917 0.0953925743077842 0.0075653537309721 0.215242709810612 )
( 0.1209964111624418 0.0403077780518488 0.0186674064289124 0.0968721343677932 0.0171635513591358 0.2206057468047226 )
( 0.1175028072366721 0.0353773525101566 0.0151975258615419 0.0996617108024387 0.0267339169628603 0.2241490831343212 )
( 0.1160286967903571 0.032157198734844 0.00948572542952 0.1038264836368281 0.0357458267810686 0.2266702840607506 )
( 0.1173599468310552 0.0309320474497888 0.0023690448044801 0.1091391085299396 0.0443349451761565 0.2295360749392664 )
( 0.1209203515344817 0.0315412896827313 -0.0058527198482155 0.1135675291181938 0.0508754393961672 0.232116291647663 )
( 0.1264083001990705 0.0340605670018223 -0.0149153773301883 0.1172194276787402 0.0547353741945234 0.234530338796166 )
( 0.1336597322896464 0.0384257035696016 -0.0247160973317031 0.1199897968013333 0.0559731835468669 0.2383484566965878 )
( 0.1418707294347907 0.0440938555301898 -0.0337862541654475 0.1216253023343048 0.0551527408704449 0.2431158429374052 )
( 0.1501323349823708 0.0506962174863175 -0.0414294904369299 0.1224170790362359 0.0521516892571803 0.247388099748539 )
( 0.158399794728036 0.0575136900262814 -0.0480851103363101 0.1230625841818379 0.0475853126444707 0.2521895465047959 )
( 0.1659968113099637 0.0646454894662482 -0.0535324138743419 0.1235757063459376 0.0425938414220341 0.2569864422978971 )
( 0.1733270160884613 0.0720165608205284 -0.0582433539475483 0.1238660044182307 0.0365554694598687 0.261217300251067 )
( 0.1812880164598922 0.0799090535947244 -0.0627107325757248 0.1238059782656808 0.0289320024912876 0.265096621849866 )
( 0.1904847777191514 0.088468972003339 -0.0671942390511225 0.1234360688470611 0.0197068205669799 0.2687780553913009 )
( 0.1298739843769991 0.0524778602794123 0.002839171112121 0.1160474116613811 -0.0062000458137379 0.1926488743801745 )
( 0.125912617208313 0.0543235010900156 0.0068451285474383 0.1110074296465135 -0.0036043291601203 0.1986071926994886 )
( 0.1224952859794824 0.0523928162314448 0.0119994146888195 0.1042240889927395 0.001226633186146 0.2091480190789794 )
( 0.1174634647810901 0.0473753537414966 0.0146852615006056 0.1027126607153252 0.0099145689254326 0.219088293013285 )
( 0.1119519935604777 0.0421426641438229 0.0138961572475115 0.1038408725145998 0.0205872513277872 0.225545717227237 )
( 0.1073614522993309 0.0378342497860976 0.0102731950111296 0.1065649123234527 0.031510826852641 0.2303904990569042 )
( 0.1058169620459738 0.0350290905919404 0.0052674884564706 0.1110066259517134 0.0420469636229021 0.2345617492844088 )
( 0.1065436584568504 0.0340159154959166 -0.0007655544469829 0.116525539596869 0.0508493898388517 0.238572965644424 )
( 0.109081914202387 0.0356665686226493 -0.0078506025079964 0.122379980670131 0.0579070648967207 0.2425255469902188 )
( 0.1150911804305071 0.0394362223174422 -0.0155224529005266 0.1267440271160656 0.0625797575392256 0.2461847088060649 )
( 0.1228658286836263 0.0448321775462023 -0.0237547179132559 0.1299538637756362 0.0644409202164187 0.2505093835752307 )
( 0.1320710852954274 0.0517663490414116 -0.0319265373776661 0.1321357066483842 0.0632203498633554 0.255671920463089 )
( 0.1419508736118112 0.0598409626961053 -0.0389207042427787 0.1330552747860192 0.0587096161432524 0.2604243373756911 )
( 0.151465952804859 0.0684088063867573 -0.0446099886604605 0.133825825360591 0.0526058520157551 0.2648511488353919 )
( 0.1605741409557599 0.0767511559470496 -0.0496337516252311 0.1346069405812676 0.0458426294239923 0.2692835059308456 )
( 0.1689605574915587 0.0854287670230264 -0.0535999437572111 0.1353991061138009 0.0384982588118366 0.2734705886942801 )
( 0.1777139468294593 0.0942569042979111 -0.0569935837416489 0.1362566203704011 0.0304605124941015 0.2769216535992836 )
( 0.1874493295041155 0.1035871441996449 -0.0603489976282775 0.1369147849108048 0.0211883218753522 0.2798257688274279 )
( 0.198406618883726 0.1135179844506868 -0.0636494427970929 0.137370551811814 0.0106907309992113 0.2819237755099663 )
( 0.1215055536754849 0.0550106854987766 0.0033256159709679 0.1224980597737094 -0.000842034206917 0.1970861995960905 )
( 0.1160304068368021 0.0546587211935354 0.0056552435493238 0.1170213726569123 0.00293331160629 0.205003661476033 )
( 0.1110751976030085 0.0501291086919481 0.0087560759285117 0.1105106266301256 0.0101042511885309 0.2166741424248386 )
( 0.1054869300648309 0.0444883451923844 0.0093676086933803 0.1101866787967178 0.0212520006129844 0.2263471848377133 )
( 0.1001218097665322 0.0401830486597899 0.0071449693637566 0.1130424524604044 0.0337788242082292 0.232977818625823 )
( 0.0963274391923722 0.0375531820088962 0.0026336903799146 0.1170331369125347 0.045036030790416 0.2383941940306828 )
( 0.0962590670767665 0.037310018304947 -0.0023179314325236 0.122451257857882 0.0549213313235008 0.2433446125073083 )
( 0.0988827518579702 0.0388217041065136 -0.0077526656201819 0.1290596867774562 0.0629274729355665 0.2484315453866106 )
( 0.1031874934992023 0.0424185836916664 -0.0138872885777067 0.1349982115685243 0.0683364753853441 0.2537758990235106 )
( 0.1112636789766077 0.0488331846750063 -0.0201518655892028 0.139566700659996 0.0708761556422939 0.2586523771276277 )
( 0.1212576327055328 0.0567571448125059 -0.027036828063528 0.1422062502506264 0.0695005626389961 0.2635413427537463 )
( 0.1317076595914877 0.0653407852036842 -0.0335497667740649 0.1438350912123943 0.065209509311433 0.2692472782711069 )
( 0.1430541833471183 0.0752968175043293 -0.0389376182450547 0.1451315672989295 0.0577994381603164 0.2734606942314863 )
( 0.1541127116195721 0.0855915399053637 -0.043363275688274 0.1464895363468203 0.0492337679354011 0.2775838272601633 )
( 0.1643036093705949 0.0952568274472758 -0.0469614688342027 0.1479910703570889 0.0408399538078884 0.2815748830427752 )
( 0.1740126870802209 0.1052742861818224 -0.0499051629890287 0.1496578475295494 0.0316211527101604 0.2848350327821937 )
( 0.1842442983104552 0.1155412223871689 -0.0524440149915525 0.1516185238189853 0.0220222365355082 0.2868265463289298 )
( 0.1959743084396359 0.1264424628937643 -0.0551331902256816 0.1535392231992809 0.0116586484787102 0.2877189413005979 )
( 0.2092972632657032 0.1380611742066739 -0.0580424358976505 0.1552846049014927 0.0004698759691027 0.2875674984047894 )
( 0.1135733452454175 0.0568358074090311 0.0019633183141161 0.1280742010939299 0.0050279545814222 0.202041149313136 )
( 0.1066848958427947 0.053627768612038 0.0031739443487527 0.1215530598126904 0.010029205975219 0.2106233855834979 )
( 0.0997679430853398 0.0475616230360722 0.0043500125974003 0.1163002601276744 0.0196477587054789 0.2214509200119769 )
( 0.093645103026789 0.0427513066490095 0.0035500017164364 0.1178600457353168 0.0326211861702821 0.2312172381047432 )
( 0.0893942964584671 0.03992465539071 0.0010109670114635 0.1219746633190285 0.045356545036581 0.2389668365113211 )
( 0.0873128844271643 0.0388534628216637 -0.0026955524076519 0.1277388386439462 0.0564175222644817 0.2451847548723343 )
( 0.0882675501175321 0.0406422278707826 -0.0070915699171768 0.1345138219871617 0.0653440339162396 0.2504354329823325 )
( 0.0925744435245317 0.0447363848772162 -0.0116136282056129 0.141509878702311 0.0724594753890988 0.2568726244181126 )
( 0.0992556689913644 0.0503080623227524 -0.016295711137163 0.1474538195559823 0.0763314914225435 0.2634920398778518 )
( 0.1089315199500668 0.0585009126832711 -0.0211706516635225 0.1517256204631557 0.0758752167547125 0.2689571642932497 )
( 0.1210081953553346 0.0682592530280724 -0.0265535161479195 0.1542476873346701 0.071242158544025 0.2738612891415505 )
( 0.1332359175049104 0.0784682127150379 -0.0316223095563218 0.1560481353090417 0.0636644768621057 0.2788076567478836 )
( 0.1455045370549404 0.0898803116072615 -0.0359313108486241 0.1582879949842336 0.0541783234399946 0.2831492589608314 )
( 0.1576163925568656 0.1013910410216034 -0.0396778750954282 0.1606265699453885 0.0439143993144819 0.2869436141934822 )
( 0.1689617718427671 0.1125776087813658 -0.0423282361252545 0.1632599278858262 0.0337483969313738 0.2894997016023667 )
( 0.1801507085369932 0.1240766467394142 -0.0445796273974777 0.1665022248345502 0.0232561013621059 0.2910873493767587 )
( 0.1921966377882511 0.1361421666170063 -0.046919104578705 0.1703028244941358 0.0125984469985963 0.2912342440036932 )
( 0.2062371994220118 0.1490291284215648 -0.0496071305661428 0.1739457400108468 0.0015908037481566 0.2897771124759637 )
( 0.2225028150473456 0.162681216022486 -0.052781215684023 0.177043851103243 -0.0097865569011621 0.2870978171370389 )
( 0.1063305569088329 0.0569103153378358 0.0002362378062334 0.1315905394434828 0.0102228542598303 0.2065646975504419 )
( 0.0979886591584593 0.0519769140726673 0.0001875630771999 0.1249919770042784 0.0168726637095981 0.2136362208614058 )
( 0.0895539224004669 0.0456345940293 0.0001085303360611 0.1221888486796783 0.029352396081993 0.224464203232473 )
( 0.0834261265004177 0.041613252391483 -0.0010776288414227 0.1256592351922637 0.0428548611948009 0.2347208783636636 )
( 0.0798686504163423 0.0399123039573654 -0.0032126891153913 0.1311382049473219 0.055186430821328 0.2433651254166043 )
( 0.0796351076526586 0.0409863262218985 -0.0060469216984119 0.1388059502296373 0.0658942137936392 0.2506808838200394 )
( 0.0826766611259958 0.0447208502048497 -0.0091560486418703 0.1469731371080815 0.0740770688962173 0.2572827442526511 )
( 0.0886525807376029 0.0502640050671046 -0.0123020677070234 0.1537531135118409 0.0796759167377135 0.2650557755741998 )
( 0.0975067955103515 0.0574683507812768 -0.0158162074317751 0.1595090561198931 0.0810625798229466 0.2716829420606055 )
( 0.1082041807468582 0.0669875389686975 -0.019568685183033 0.163597654352245 0.0776029808723376 0.2771784217910291 )
( 0.1209147004963675 0.078224456907728 -0.0236507979760776 0.1664016796693898 0.0702908115922145 0.2818003007427928 )
( 0.1350510142831547 0.0905632463146833 -0.0278663467028963 0.1690969568311678 0.0600317516632953 0.2858228191373479 )
( 0.1482859703791919 0.1032544762586753 -0.0314529019447045 0.1723094453108961 0.0487125917731585 0.289603822106723 )
( 0.1613978420035654 0.1159678784088731 -0.0347181306685533 0.1760911546765301 0.0371051412037693 0.2920529083000319 )
( 0.1743855639999111 0.1291565469790433 -0.0373269053780398 0.1807592485260497 0.025486548218286 0.2930547861622449 )
( 0.1872993922582306 0.1426768841298825 -0.0394845186602929 0.1863392676446066 0.0139526317822008 0.2925749884932281 )
( 0.2016427220961424 0.157003676036022 -0.0419900689505937 0.1923151514162286 0.0025975513076203 0.2907472787241862 )
( 0.2182418893409754 0.1721056324855851 -0.0452403537143908 0.1977872397193468 -0.0084886241874367 0.2873407339625313 )
( 0.2380156173939821 0.1884748185824558 -0.0492729821261244 0.2025453730672146 -0.0197153637804799 0.2824877243293673 )
( 0.0975390753582416 0.0552552686485551 -0.0021970934954338 0.1340383755360611 0.0150704012046642 0.2079735507522855 )
( 0.0881317982610609 0.0496728711974906 -0.0032594351229778 0.128473156400498 0.023729917896351 0.2135350796282862 )
( 0.0795782999616425 0.0437253105727686 -0.0032580204539467 0.128507407148753 0.0382219495146747 0.2261986086108233 )
( 0.0741964534457647 0.0407895015466757 -0.004050164430291 0.1335638998841157 0.0517155212131064 0.2375986943024114 )
( 0.0721925074367697 0.0407963834342277 -0.0053667677572056 0.140789027429927 0.0638400780237377 0.2468178672532625 )
( 0.0739447883925233 0.0437082241965318 -0.0071135793684879 0.1494851061745387 0.0736781584450522 0.2554969934872544 )
( 0.078987846213788 0.0486514536420058 -0.0091567025120053 0.1576900829019992 0.0803607073711189 0.264030928541004 )
( 0.0865892707383167 0.0552285983198912 -0.011235236921862 0.1650986816867375 0.0839941119853269 0.2720736135903338 )
( 0.0967403083964797 0.0639443211955779 -0.0136195180500614 0.1709297021205391 0.0827367854342406 0.277710118953998 )
( 0.1083340714522095 0.074754027798132 -0.0161979077270401 0.1751769741100507 0.0768409404085145 0.282573731437558 )
( 0.1217345043136581 0.0872554053513128 -0.0193768867958965 0.1789991354895773 0.0673409204080869 0.2868890541987554 )
( 0.13652131817674 0.1011867329183371 -0.0230883669249725 0.1832292857618037 0.0551755404397568 0.2905856228603571 )
( 0.1510591249166444 0.1156171654119275 -0.0264983377465082 0.1879035353855004 0.042050363413989 0.2928347098600606 )
( 0.1659193736627476 0.1305652286434056 -0.0300188269326071 0.1937102494539188 0.0289058758101916 0.2935126444503835 )
( 0.1806553672777128 0.1461525747108626 -0.0330334010915214 0.2013298868653968 0.0162726812167615 0.2929859363580275 )
( 0.1953372308778291 0.161848367296336 -0.0356227888605006 0.2097094470220772 0.0043721347337761 0.2908029763650994 )
( 0.2116856134559525 0.1784101980382826 -0.0387362500971513 0.2179571480154828 -0.0071602117280974 0.2872338626953731 )
( 0.2316905028174917 0.1964810446572941 -0.0428058343969502 0.2254906079128859 -0.0182713700204248 0.2823132719681721 )
( 0.2562939783144485 0.2164246142361724 -0.0478731032473225 0.2321930071928233 -0.0290926772133625 0.2759833126591887 )
( 0.0885248519607677 0.0527754732458537 -0.0050249279403582 0.1374424263254178 0.0203504742645234 0.2067606040059778 )
( 0.0781060852492102 0.0465113931048061 -0.0060485284134354 0.1327340855490795 0.0307286952575849 0.2131848382840849 )
( 0.0703169897541567 0.0419205361502111 -0.0053166860588818 0.1346014399897873 0.0460741948196463 0.2275939728941252 )
( 0.066653908133268 0.0408188277898526 -0.0054874304525149 0.1414367694538757 0.0591328406567062 0.2397619904241274 )
( 0.0667273189753078 0.0422558606527072 -0.0060528357882852 0.1497989438078658 0.0705115174011724 0.2504226756893087 )
( 0.07048729911131 0.0464959748317437 -0.0066842647408864 0.1590993192712891 0.0794705576875776 0.2599021722123028 )
( 0.0769200664924729 0.0523625155026954 -0.0076447722411684 0.1679240616820569 0.0846715543968706 0.2690400044107115 )
( 0.0855652840778003 0.0599536374827472 -0.0087195700218964 0.1761625904229361 0.0861056519208501 0.2769573132866536 )
( 0.0965760058559311 0.0701779748341013 -0.0099237149841801 0.1824538869807892 0.0827714577622053 0.2826280884254762 )
( 0.1091211266471126 0.0822588297626082 -0.0119284486491955 0.1869595312826949 0.0745997348654744 0.2869024159035315 )
( 0.1234832881458804 0.0961161512068475 -0.0150572517227872 0.1922000734981194 0.0631129520276562 0.2902557422009575 )
( 0.1386554354941555 0.1113507008507028 -0.0186952943451848 0.1981877665261298 0.0493944733773421 0.2930449670158493 )
( 0.1543317417127431 0.1278646769271462 -0.0223601578853071 0.2054118042514611 0.0345280653814113 0.2938409136148704 )
( 0.1707555971887921 0.1455372490364539 -0.0262412688085898 0.2145024630714646 0.0199619438145647 0.293025026060991 )
( 0.1864221169721022 0.1630666541585762 -0.0294707425988942 0.225199731395211 0.0071664681602252 0.2909254714173489 )
( 0.2028674087025345 0.1809527169974248 -0.0327880901262024 0.2361820020743617 -0.0045067186671377 0.2872538905553688 )
( 0.2223500986035362 0.2007779024485482 -0.0370395381819719 0.24731610704673 -0.0162056558181145 0.2825871032667338 )