/*--------------------------------*- C++ -*----------------------------------*\
| =========                 |                                                 |
| \\      /  F ield         | OpenFOAM: The Open Source CFD Toolbox           |
|  \\    /   O peration     | Version:  2112                                  |
|   \\  /    A nd           | Website:  www.openfoam.com                      |
|    \\/     M anipulation  |                                                 |
\*---------------------------------------------------------------------------*/
FoamFile
{
    version     2.0;
    format      ascii;
    arch        "LSB;label=32;scalar=64";
    class       volSymmTensorField;
    location    "0.0047";
    object      tauij_LES;
}
// * * * * * * * * * * * * * * * * * * * * * * * * * * * * * * * * * * * * * // 
 
dimensions      [0 2 -2 0 0 0 0];
 
internalField   nonuniform List<symmTensor> 
13597
(
( 0.1310707183072526 0.0410107687339131 0.0010344964482588 0.0614424139938975 -0.0080151967204312 0.1400759829093763 )
( 0.1292812376670471 0.0407029739734735 0.0034925250352572 0.0571864962695417 -0.010529127832074 0.1373038102414096 )
( 0.1262066103351162 0.0387540031786709 0.0073824532491857 0.0499573400882123 -0.0155207289625613 0.1321116245734637 )
( 0.1217673268337826 0.0350366362724466 0.0111747402939893 0.0455541708246428 -0.0209985207848204 0.1270142257679014 )
( 0.1184691122421055 0.031650024362389 0.0134514590238662 0.0447824976857695 -0.0241449940211499 0.1228771837972023 )
( 0.116648918434154 0.0293191498930372 0.0147993777366824 0.0450559300319358 -0.0258167903971789 0.1192863297343862 )
( 0.1146556372497707 0.0271650946128605 0.0149939001724721 0.046175641652333 -0.0264522359789274 0.1155712744644713 )
( 0.1133389906119774 0.0252708661064266 0.0142560454430887 0.0482887199223358 -0.0264056823730454 0.1119186713580211 )
( 0.1124121976812049 0.023643565427563 0.0134365577622004 0.0509439791560188 -0.0260391623257235 0.1093031464908887 )
( 0.1114789659818462 0.0224066308104112 0.0123705820441604 0.0540608350103751 -0.0254006989426016 0.1071049447089281 )
( 0.1116153172679643 0.0216700396452095 0.0114380391329649 0.0576949650620043 -0.0245308264191166 0.1059482103663825 )
( 0.1126155780616368 0.0216799458811982 0.0109739053639484 0.0616387731778118 -0.0229539564474596 0.1064429352830275 )
( 0.1143248449583079 0.0222219558756861 0.0105655263006012 0.0657610622424195 -0.0213158829406614 0.1073473939293561 )
( 0.1164444149179291 0.023217157103172 0.0106633783036109 0.0697190679623734 -0.019582582059617 0.1097229268368326 )
( 0.1186644927755962 0.024755443959138 0.0112627434206852 0.0733469799578729 -0.0174412385477211 0.1144396708680692 )
( 0.1208042166893158 0.0265783089959442 0.0120489364944469 0.0764714729799225 -0.0152964799482514 0.1201532106708722 )
( 0.1233131742081621 0.0286543706138329 0.0133155347369677 0.0787895015945874 -0.0134238841231616 0.125833763859601 )
( 0.1266042196908253 0.0311086797407308 0.0148215013463469 0.080495912167848 -0.0113806331138918 0.1318875585242964 )
( 0.1300289180007837 0.0340350172837334 0.016696809558803 0.0823427117350386 -0.0082928040587039 0.1402497252626149 )
( 0.1214758605170693 0.0361041331981465 0.0119515029620229 0.0626264424262047 -0.0063571556494162 0.1454897810094489 )
( 0.1172204623460615 0.0330567346367307 0.0141465439837131 0.0566716711753514 -0.01001331585913 0.1435986575699132 )
( 0.1111953610068821 0.0286660203344914 0.0161858770212885 0.0472731713015194 -0.0169583289564877 0.1379701922548638 )
( 0.1064110469547136 0.0246333840609517 0.0165974454468772 0.0423179281581237 -0.0232533293501216 0.1336337804732114 )
( 0.1037369327792463 0.0223314817915679 0.0154682712897876 0.0409070949648851 -0.0259009730047033 0.1299474528394044 )
( 0.1022871923398079 0.021178810027528 0.0143463309356639 0.0411625982603065 -0.0271341919924666 0.1268871993512063 )
( 0.1021723801575478 0.0211082015702178 0.0128806575454049 0.0424911062136202 -0.0268692992989785 0.1241341210523712 )
( 0.1022530882625244 0.0219417881834821 0.0106719602974496 0.0449738609435326 -0.0256982115621686 0.1225839543436927 )
( 0.1026993228590739 0.0232878832763951 0.0090762946140558 0.0484275197907723 -0.0237510602570144 0.1225727548894307 )
( 0.103621602217303 0.0252590960465935 0.008356120183154 0.0522615429124603 -0.0215731736785702 0.1232280711550914 )
( 0.1055692166725213 0.0279759532728345 0.0083385056979468 0.0570069322496275 -0.018927857329441 0.1259079908606319 )
( 0.1080615981966993 0.0311153277327161 0.0092442902673976 0.0624645271934217 -0.0153647771551725 0.1314461430664139 )
( 0.1110203852724504 0.0346610038304392 0.0108099268602503 0.068086965831785 -0.0121582376645148 0.1376353843221716 )
( 0.1149153384906716 0.0386752342390034 0.0131350452490103 0.0736693815761198 -0.0088295693559586 0.1449769348689017 )
( 0.1185316957753377 0.0426228157441421 0.0157631010978761 0.0790262494793443 -0.0053037337202931 0.1540384365363309 )
( 0.1211199361417304 0.046076066707251 0.0180734778372874 0.0841721545936734 -0.0022994982954291 0.1629970460352864 )
( 0.1232476835312759 0.0490773869298079 0.0202580869692746 0.0881791137722553 0.0003267893849197 0.1711372517990912 )
( 0.1262215653240155 0.0520505618713879 0.0227588543529257 0.0912551211012853 0.002576535017678 0.1790025027899903 )
( 0.1296641980178731 0.0547881108737269 0.0252089302006496 0.0945007533177481 0.0048973229081612 0.1870316486677849 )
( 0.1100637614908747 0.0251650628810921 0.0188345465495976 0.0623022771948394 -0.0073375199969771 0.1579176808589436 )
( 0.1058969442844942 0.0209473076716894 0.0194839722721575 0.0555397404137093 -0.0122507121623791 0.1576563806277182 )
( 0.1022479248994782 0.0171463782261496 0.0177867874497416 0.0461240779674868 -0.0207731383462685 0.1517682589187038 )
( 0.1006084192444347 0.0154028574259042 0.0134736893937695 0.0419314549296767 -0.0270933461849953 0.1473051116188588 )
( 0.1005905830001989 0.0157872391491496 0.0088547859473071 0.0412087358411198 -0.0285628121954683 0.1439926744242502 )
( 0.101573997966928 0.0174205713374143 0.0056079436234843 0.0423571002396659 -0.0286908438492631 0.1412193161325885 )
( 0.1027781764741658 0.0200453244066693 0.0030680034242729 0.0445962423089738 -0.027098724462228 0.1393944968407604 )
( 0.1038780761192496 0.0233266091053424 0.0010282079840344 0.047854147653761 -0.0243255741970362 0.1405964637997404 )
( 0.1052110285306858 0.0271620577869537 0.0008548360685008 0.0521356299373381 -0.0208381858009515 0.1437917779120226 )
( 0.1067471969732903 0.0313973409345272 0.002457953864703 0.0571043733609995 -0.0169761416685058 0.1481145855442971 )
( 0.1086871377177629 0.0358092929320226 0.0052388310582245 0.0626512736617446 -0.0126288541256471 0.1548354446859463 )
( 0.111047045862089 0.04024043582953 0.0090300970422977 0.0691446122464827 -0.0080777123086979 0.1646654452832428 )
( 0.114050030998647 0.0446978119407888 0.0140304417970539 0.0758996753611782 -0.0039347587622607 0.1758750747329872 )
( 0.1174366182545089 0.0489624601251702 0.019404481460171 0.0821174855335655 -0.0001292164520106 0.1868714360700766 )
( 0.1204350238076443 0.052537231590207 0.0243948315894151 0.0875194067054253 0.0032772554420499 0.1973376896137306 )
( 0.1229363724390498 0.0552442529034071 0.0287995303696054 0.0920425828889912 0.0061393665243087 0.2066294609842449 )
( 0.1251293701751234 0.0572536206641107 0.0327468981690277 0.0954535791477885 0.0086114140400611 0.2145600525423335 )
( 0.1273816328069597 0.0589077854895956 0.0369016275734408 0.0981149080279756 0.0108824784512137 0.2216565953344663 )
( 0.1294776099788717 0.0599922212630635 0.0408786906409967 0.1004304822800593 0.0128530378341203 0.2274668424541315 )
( 0.1028277402550921 0.0149120100644458 0.0214267304615769 0.062156578416309 -0.0097366493993965 0.1735849785954903 )
( 0.1007683849479926 0.0115887603163591 0.0184923965731705 0.055420827921222 -0.0153990784100865 0.1734731945227753 )
( 0.0999947167449997 0.0107118087917768 0.0113935514712108 0.0471513645706567 -0.0243026080800482 0.1655609945894639 )
( 0.1001482282160252 0.0127353038120372 0.0032891984320094 0.0448144544334443 -0.0299670408073033 0.1597346310249348 )
( 0.1010560549096949 0.0160117496998019 -0.0024667136613393 0.0457019411448849 -0.0301686543777251 0.1566512182173588 )
( 0.1019646276643354 0.0198619731660155 -0.0055172969641223 0.0477709537399749 -0.0282750467611762 0.1547064761555827 )
( 0.1022407090559641 0.0244268705092329 -0.0063984911734119 0.0508220982304274 -0.0244981657192103 0.1547398985595261 )
( 0.1030458508193317 0.0291766307569795 -0.0052841720323098 0.0548979536611232 -0.0195544245275607 0.1583320404102998 )
( 0.1044089967458452 0.0341023109341063 -0.001438611852706 0.0596974303259962 -0.0141821961584015 0.1643474708547281 )
( 0.106208655828578 0.0392730190687334 0.0043461819361557 0.0653471666135596 -0.0083996616268241 0.1729623701785359 )
( 0.1082959919724798 0.0441552914797209 0.0116726285311517 0.0714682223665691 -0.0022795421673186 0.183700194678871 )
( 0.1116258993372183 0.0486015170623407 0.0199316890781229 0.077996629246304 0.0033078967768569 0.1961237035127784 )
( 0.1158423216978643 0.0525526543042283 0.0288798046033785 0.0840250110677133 0.0082833377407549 0.2088686461998577 )
( 0.1198674949455679 0.0560647860301389 0.0374135683159333 0.0895412200666129 0.0125729040036788 0.2209121450265261 )
( 0.1234949717235145 0.0586097964356555 0.0444005542523619 0.0939287236632104 0.0162086821040576 0.2309344254822492 )
( 0.1268051690918799 0.0601586627320905 0.0500844679353153 0.0969117553657826 0.019195662992889 0.2386164308772277 )
( 0.129536204475194 0.0609230290392804 0.0548427041741689 0.0988018422182985 0.0214597576354898 0.2442007489057109 )
( 0.1322907195961441 0.0614663433559432 0.0593472026358917 0.1002504076246034 0.0234642999586794 0.2484780495095402 )
( 0.1349541402417235 0.0614802065769257 0.0633544576816857 0.1013357587501755 0.0252193138550571 0.2514996067333288 )
( 0.0986779278940257 0.0085289976360056 0.0172818384851837 0.0631370456426661 -0.0118228405742354 0.1887145047773417 )
( 0.0982588842267474 0.007687062408697 0.0099400134464743 0.0565167285897419 -0.0186591334650596 0.1846453194725658 )
( 0.0983936870850279 0.0103908090178092 -0.0005761858234934 0.0502202294733771 -0.0270950895842526 0.1740189392860355 )
( 0.0984311995275283 0.0154976933045553 -0.0091629880480932 0.0505472571606293 -0.0308901221878967 0.1682257551182331 )
( 0.0984798125385373 0.0206064068087809 -0.0131204555277443 0.0528157286449268 -0.0288645759623512 0.1653478110051478 )
( 0.0982924393970036 0.0260744142405539 -0.0130549911223725 0.0557851702689255 -0.0242020460037575 0.164929341661003 )
( 0.0986912738929179 0.0320850830283462 -0.0091753992544256 0.0594748516025348 -0.0174189614647365 0.167184128447867 )
( 0.0999231426009248 0.0378385832678925 -0.0021223258468507 0.0639614929211873 -0.0096011086291599 0.1730744496478388 )
( 0.102156200123963 0.0432712621962752 0.006948495230818 0.0689811439864305 -0.0020087106735892 0.1819850842814986 )
( 0.1056286212598592 0.0486597004053264 0.0176423628109294 0.0745736497347074 0.0054615287620617 0.1933378516938813 )
( 0.1103333176785304 0.0539110616483818 0.0295262470382257 0.0808394640806676 0.0127221050359492 0.2071761454535826 )
( 0.1160842501204477 0.0583010214023024 0.0409752626534464 0.0868419408526237 0.019130371104704 0.2218332959995599 )
( 0.1220396028887853 0.0618334705968076 0.051317621767067 0.0919799626709531 0.0244118047368142 0.2352117570339695 )
( 0.1275299005872995 0.064671397117576 0.0600201123025748 0.0964296561069169 0.028468064605108 0.2467220711267072 )
( 0.1319458170314917 0.0664104524069797 0.0664721846142092 0.0993397539869999 0.0314883748923845 0.2551848689558877 )
( 0.1353499146244933 0.067370869528496 0.0709276611387217 0.1012260648574301 0.0336093174424343 0.2610481059417364 )
( 0.1375729063867432 0.0674804820201793 0.0737465522324044 0.102367233975587 0.034706215929717 0.2640278426840889 )
( 0.1394146975590957 0.0671520452612843 0.0755982071447357 0.1030325358835618 0.0351860301320339 0.2649126272533788 )
( 0.1407845834543678 0.0662703788627895 0.0764559014567646 0.1032020053794872 0.0349997086477528 0.2635737877430008 )
( 0.0956826881410428 0.0064884207522566 0.0072353960086783 0.0653814213768338 -0.0139388101857065 0.1986962024671709 )
( 0.0950977840684551 0.0084485378043981 -0.0036234513684358 0.0597591112791335 -0.0212103836814059 0.1903976497516519 )
( 0.0944472713759529 0.014100407521156 -0.0138199365454635 0.055712009752194 -0.0282082024968212 0.1775084190189833 )
( 0.0941741399344899 0.021129230954731 -0.0185681114535437 0.0579032845372537 -0.0287820631154493 0.1722323024049094 )
( 0.094088873423909 0.0273146297552105 -0.0173669839393934 0.0608778431522862 -0.0236411170934661 0.1698341122894219 )
( 0.0947272122679506 0.0340202599965111 -0.0112964414454766 0.0644569425918556 -0.0160871284557365 0.1712628151864431 )
( 0.09706644059357 0.0410547702095408 -0.0015320650612252 0.0686699507823013 -0.0066763727697781 0.1763886293073477 )
( 0.1002325098499131 0.0474565984209007 0.011212934156886 0.0735128063757983 0.0033223311742069 0.1848700253071428 )
( 0.1049010075708195 0.0537832433743397 0.0254212901177669 0.0788894221920324 0.0129531245124754 0.1967971130494993 )
( 0.1113171910985766 0.0597995115513195 0.039746217001329 0.0847487965065501 0.0217986910324249 0.2112701569300445 )
( 0.1182090951703615 0.0648933700976869 0.0527004214483928 0.0906979122292445 0.0289809613782737 0.2270161370564614 )
( 0.1246899459842234 0.0690301845908747 0.0634748490376635 0.095987681414636 0.0348316299174386 0.2420302810095069 )
( 0.1298544465663738 0.0717780031147372 0.0712755135019649 0.100266865162757 0.0386074159793624 0.2543196948043756 )
( 0.133518117865717 0.0731178565824958 0.0762182423761636 0.1032620183263497 0.0404040571148001 0.2624465408786613 )
( 0.1358682371969142 0.0737065367232689 0.0788450500503472 0.1051606902570936 0.0412150820463327 0.26724893660313 )
( 0.136735802399095 0.0737263051524123 0.0794106996534841 0.1062668772204241 0.0411138543094957 0.2688446181058278 )
( 0.1367672879681611 0.073210471816179 0.0787131308669186 0.1068627453834908 0.0401690218606391 0.2672290884261871 )
( 0.136099427997786 0.072249553035784 0.0770102262910126 0.1070939054713186 0.0385255178692039 0.2628786353281655 )
( 0.1350431415490053 0.0708953063482069 0.0741015654667212 0.1068440393552549 0.0360437077866908 0.2557690268675769 )
( 0.0921538956235336 0.0074572136700513 -0.0069024237768297 0.0691599136407896 -0.0157881860101733 0.2026876177513459 )
( 0.091258558411606 0.0117897999528458 -0.0176839563678692 0.0650687410087564 -0.0227624384072994 0.1916089931704934 )
( 0.0906546248297991 0.0195251746359917 -0.0232582706168362 0.0631014387170961 -0.0270585441020246 0.1787777948333841 )
( 0.0909039584358904 0.0279499076974881 -0.0211703031310233 0.0660741375531536 -0.0237177754041584 0.1739116648507126 )
( 0.092460539819274 0.0355017034011321 -0.0131235163188643 0.0696313829060002 -0.0155496125824193 0.172855363472557 )
( 0.0955812589656689 0.0432119054385824 -0.0003222925738336 0.0737200083006882 -0.0050047368293198 0.1764647186437274 )
( 0.1001029092861938 0.0506392867166232 0.0155084455857944 0.0783744729500096 0.0065892315710355 0.1843739353768257 )
( 0.1058312949978389 0.0575291160058866 0.0317544724022726 0.0835693897689538 0.017740632933067 0.1955924604495192 )
( 0.1124922267621646 0.0643768139534358 0.0478268414869277 0.0892914420861694 0.0282267002215441 0.2097055470425214 )
( 0.1190172500334704 0.0699364444065515 0.0614321658046265 0.0948640079588179 0.0366329039855739 0.2252833900881041 )
( 0.124126747371558 0.0738229565705709 0.0711622295164074 0.1000562318129054 0.0419219138208865 0.2400146371860771 )
( 0.1283123332689513 0.0768786292412324 0.0778676510320483 0.1046125630669453 0.0453131867515175 0.2531146798616112 )
( 0.1307389120153433 0.0783042883710843 0.0807992730220544 0.1078486508487681 0.0462222520297443 0.2615883936056906 )
( 0.1312807273502043 0.0784488584612136 0.0810982038925733 0.1099178409409977 0.0454393207216213 0.2644811513380179 )
( 0.1307173833177114 0.0780183678475761 0.0794501589097358 0.1113340867153853 0.0438166228446297 0.263704769114665 )
( 0.1293910147141516 0.077447524575932 0.0763753297048451 0.1122094905555046 0.0416228213757395 0.2598753977877372 )
( 0.1277283575362345 0.0768450810554572 0.0727187532942163 0.1126376630479741 0.0390582544839762 0.2532816453553155 )
( 0.1259582018933746 0.0761176292016941 0.0683290610586184 0.1127657737300299 0.0358834295308603 0.2439890067000916 )
( 0.1243448883072529 0.0753738605797456 0.0631580332976938 0.1125265583396982 0.0322172479462922 0.2320250058227553 )
( 0.0894694996892145 0.0102999013755033 -0.0211643465931172 0.0738325381320861 -0.0171979187509165 0.2037380303939722 )
( 0.0883597881939279 0.0163420786149066 -0.0280090237873897 0.0715299194378508 -0.0233012960485777 0.1904884486850724 )
( 0.0889682416758596 0.0258525544012534 -0.0263801091162748 0.0712550177776781 -0.024180206569639 0.1788113892344956 )
( 0.0914047100717533 0.0353621650806925 -0.0166362132930992 0.0747009994226309 -0.0168522851124759 0.1750650904214364 )
( 0.0951880810674605 0.0439503283591053 -0.0014651371934626 0.0788175570562509 -0.0056803558679756 0.1757046336873877 )
( 0.1008384323519227 0.0523548900776819 0.0174323870946172 0.0832480261108636 0.0074390035882451 0.1815217307225149 )
( 0.107490532589083 0.0602960134163995 0.0365907164784706 0.0883397992918454 0.0206909064330906 0.1916455069981136 )
( 0.1138004555990049 0.0671279837147457 0.0528129614145285 0.0938429057480317 0.0319371331967083 0.2046895837328314 )
( 0.1193952229651254 0.0730939272767778 0.0669774486875701 0.099497060423449 0.0411329078324063 0.2194652008725969 )
( 0.1230637135348539 0.0772912357777314 0.0769348299106568 0.1043271057574531 0.0476265651375582 0.2339139502286605 )
( 0.1248543212781483 0.0794664411662855 0.0817480164523763 0.1086344400235307 0.0501735557759031 0.2454411747766164 )
( 0.1257628046092033 0.0808944261790283 0.0832474505216234 0.1124941443962768 0.0502209578776071 0.2540520538458402 )
( 0.1252366390489958 0.0813728357868693 0.0814184023627931 0.115168501587402 0.0485298716220985 0.2571093458787526 )
( 0.1234443429470948 0.0810765014670796 0.0774052394467415 0.1170634618398963 0.0455272731072642 0.2544849644406331 )
( 0.1213876258325384 0.0806428233145448 0.0727119107254269 0.1184534551458803 0.0422798300619939 0.2487114194306637 )
( 0.1195239649653654 0.0805592330334108 0.0675551764378497 0.1195955905896049 0.0389297301920963 0.2404572317028094 )
( 0.1177917045963317 0.0806488172712269 0.0620746879757559 0.1203407817158823 0.0354119620743414 0.2300758983489779 )
( 0.1165996102858041 0.0809063131207885 0.0561713352002994 0.1206137642526998 0.0314422425182226 0.2176533136211921 )
( 0.1161018401623226 0.0814378404367707 0.0501111778750617 0.1204680941318858 0.0273604057773514 0.2032740674344232 )
( 0.0879286133361864 0.014019396553862 -0.0323817681727663 0.0794068434517104 -0.0179377962293442 0.2027040995860508 )
( 0.0875690261373287 0.0212399991895096 -0.0334533249355545 0.0789602186455068 -0.0222122026871765 0.1888088650669653 )
( 0.0902008544103596 0.0320779664524953 -0.0233383740772486 0.0797770400392358 -0.0196066515184021 0.1783185559140525 )
( 0.0947911153944193 0.042523697674402 -0.0056427529596163 0.0835283344323612 -0.0088290358152319 0.1758929183343428 )
( 0.1004743921532742 0.0518922589315359 0.0154224380749565 0.0882467376917382 0.0051088295944136 0.1781383502508962 )
( 0.1078618145313927 0.0607805327711148 0.03706822960073 0.0931098500271387 0.0197534419384496 0.1862875532777771 )
( 0.1143216775999814 0.0683265680650624 0.0554332106210485 0.0984032623342509 0.0328892105556268 0.1973552396061995 )
( 0.1186460508527195 0.0742569365843163 0.0696273452945403 0.1036734188417124 0.0432935888450588 0.2103918588410276 )
( 0.1216531339025014 0.0786572484915095 0.0798073240066571 0.1086147087317311 0.0503934476000606 0.2241791549290287 )
( 0.122109571051448 0.0812276789511045 0.0846590390662073 0.1131693041514873 0.0541530719725439 0.2357759252135186 )
( 0.1209780886928485 0.0819808098767253 0.0846037078617441 0.1167908088995124 0.0540508917817599 0.2432119489469809 )
( 0.1192992444751352 0.0822814418440293 0.0814048906941787 0.1199623969248434 0.0513774153546613 0.2461862576113981 )
( 0.1169316423316228 0.0827659479698031 0.0761567791833748 0.1229651403494445 0.0478590351857149 0.2437390700768615 )
( 0.1144338096367362 0.0829756060178831 0.0693889913502484 0.125273953793999 0.0434207498923619 0.2369710335979738 )
( 0.11251249849524 0.0833304693266967 0.0629392784738801 0.1269175717695751 0.0391672320304526 0.2282328405824027 )
( 0.1112556738491557 0.0842513675996898 0.0568357326397624 0.1285124282780052 0.0352446022669935 0.217444372371302 )
( 0.1105172766646861 0.085443208025186 0.0505811572307546 0.1296330878013108 0.0312675939102576 0.2052691516884951 )
( 0.1108159826205466 0.0871428615565322 0.0443498943199432 0.130231188991424 0.0271995463508462 0.1919668229437729 )
( 0.1122771824182005 0.08933158758612 0.0383023024041942 0.1302443096742022 0.0231066332982245 0.1773936234337392 )
( 0.0882090360510476 0.0177163932774876 -0.0384105712673934 0.0862948890937294 -0.0185182538030977 0.2004550422639919 )
( 0.0899045482128614 0.0262446003993812 -0.0322861546975676 0.0862813929774796 -0.019862471682544 0.1864267792256347 )
( 0.0939428500872418 0.0380532812541475 -0.0138121308856531 0.0878662264274272 -0.0131774151256494 0.1771214621750771 )
( 0.1002350579887785 0.0491945657825427 0.0096717112246816 0.0925408464250226 0.0002813623470291 0.1761164257571804 )
( 0.1074828477299885 0.0592413528138479 0.0336843403037143 0.097628484951205 0.0161130834074943 0.1806802245959404 )
( 0.114248876237645 0.0674917381769872 0.0547813975511255 0.1026111896146159 0.030853795009809 0.1896715847991663 )
( 0.1184831212610132 0.073723618636052 0.0706432202643048 0.107870496956106 0.0427748440066961 0.199835979367341 )
( 0.1201123135613376 0.0783980068017848 0.0812081119221186 0.1129991516118178 0.0515643662801476 0.2112370805502267 )
( 0.1196483112421108 0.0808983023413927 0.086088886196935 0.11736202902687 0.056144153397695 0.2219427928869547 )
( 0.1173060949587751 0.0820328864703973 0.0859405787678061 0.1214059987112797 0.057146133144355 0.2300412837621083 )
( 0.1142124307016118 0.0825333147141119 0.0817037636895062 0.1248117608573586 0.0549174432748115 0.2340392120050621 )
( 0.1112576362527251 0.0828961075530243 0.0750685628831102 0.1279898862526333 0.0504152435221564 0.2330546484636953 )
( 0.1085963153661564 0.0838501124825805 0.0676988436154432 0.1314118383469025 0.0456190324111029 0.2271977036941813 )
( 0.1066877745613101 0.0851189793812802 0.0599912345333771 0.1341987534979097 0.0406462399416421 0.2184368059533581 )
( 0.1057825353657699 0.0867280407232348 0.0530054595750041 0.1365890543617688 0.0359878118488508 0.2079034008623898 )
( 0.1058159512973194 0.0889716589188204 0.0465109307135467 0.1388816594339672 0.0316500654971973 0.1961117912835251 )
( 0.106813073407932 0.0917610099223665 0.0401426614501727 0.1406026157815179 0.0275388763305507 0.1837118006997729 )
( 0.109274634813312 0.0953308849553607 0.034312197690603 0.1417401630274342 0.0236360630808765 0.1705359625568563 )
( 0.1134191968331787 0.0995601045893239 0.0289069029491034 0.1420711704039979 0.0197997030429749 0.156473936131942 )
( 0.0906535897574224 0.0211851300228005 -0.039022571779431 0.0929638345669776 -0.0180144432996812 0.1978193481762256 )
( 0.0939543672590192 0.0307095141837461 -0.0254193349097257 0.0933499380344054 -0.0165914787382565 0.1837013156127335 )
( 0.0991178538257715 0.0437729501985754 -0.0004119699478918 0.0962354422182401 -0.0061246865542289 0.1759232851124166 )
( 0.1061430463217405 0.0551866856259927 0.0254073345254794 0.1014311881932371 0.0094158265526109 0.1761457810582772 )
( 0.1129578438954845 0.0648226570711678 0.0493515805443353 0.1065112766616349 0.0260753081425811 0.1814743704100767 )
( 0.1172729743881519 0.0721388862806842 0.0682932936125247 0.1115540788894429 0.0403981825749135 0.1896999643622112 )
( 0.1191171890594852 0.0769873197538711 0.0808605165571383 0.1166265936047576 0.050725920420721 0.1987851160707469 )
( 0.1183055421129382 0.0797734394914251 0.0867275942518695 0.1214237159563354 0.057016830567893 0.2079096610394469 )
( 0.1147260271746584 0.0808693421964074 0.0867262143237951 0.1254126714337761 0.0591373369091436 0.2153576955329903 )
( 0.1106379101774212 0.0814557962782484 0.0829162119822689 0.1291454878724322 0.0580147037765941 0.2207083903880121 )
( 0.1067701314741036 0.0821422698629182 0.0757818496137871 0.1327468135047372 0.0539359476100947 0.2215761652182143 )
( 0.1035647986607958 0.0833095429845261 0.0670999055405918 0.1366389213951226 0.0483057718171807 0.217789303952002 )
( 0.1017084114731741 0.0851514629566637 0.0589123518060765 0.140422467164224 0.042923054999904 0.2105123913296097 )
( 0.1010111611836814 0.0876936833466717 0.0510440722677199 0.1437568068552793 0.0376421202051907 0.2008737605121276 )
( 0.1015003990403075 0.091046529452064 0.0438234116153786 0.1473461253325489 0.0328484526221231 0.1895754455971375 )
( 0.1034554847581513 0.0952320068187816 0.037323234536687 0.1506999127525361 0.0284000550857093 0.1776392831958671 )
( 0.1068436132026078 0.1001415478064377 0.03154028255771 0.1534850063935092 0.0244516080758767 0.1655930703200363 )
( 0.1117943267647048 0.1057602884218856 0.0264435623753821 0.1553880442836535 0.0208608068012474 0.1532239347463738 )
( 0.1190484183711862 0.1124702848634513 0.0216174060387474 0.1563961077237642 0.0173464034559074 0.1404785618340849 )
( 0.0947055170114897 0.0242868624980666 -0.035088198538556 0.0992870765319528 -0.0166023843414449 0.1952763429601777 )
( 0.0992067422423051 0.034906110569786 -0.0149771627026789 0.1007917604006269 -0.0127775376319877 0.181576396626832 )
( 0.1053779558993893 0.0490855982392622 0.014470201243708 0.1047404844470562 0.001244533460897 0.1755217715706153 )
( 0.1118799585520183 0.0603860172006691 0.0405652433282568 0.1099287857470357 0.0184576934421492 0.1764478401111553 )
( 0.1164448301158105 0.0688227025557712 0.0624945660419955 0.1152314562763233 0.0346585942753241 0.1809422151233302 )
( 0.1180307583817833 0.0749359334137896 0.0779306934420754 0.1202551839186057 0.047941227045526 0.1877824584592997 )
( 0.1170582645486105 0.0781232243350322 0.0859607397414681 0.1244418597518161 0.0563874737373223 0.1954142779259249 )
( 0.1133810564881176 0.0793140346610639 0.0874449546164758 0.1285453468956752 0.060371901178916 0.2021942481458666 )
( 0.1080895577519989 0.0796871645314303 0.0841344700983637 0.1323364795920789 0.0605123776404093 0.2069528685644627 )
( 0.1033206046222031 0.0801255555705429 0.0775037630147264 0.1363243025533083 0.0574293575691695 0.2093949871212634 )
( 0.0994168872820628 0.081377359151916 0.0685086858676211 0.1407195476204931 0.052053072991766 0.2081597525234195 )
( 0.096966444333216 0.0837940983433934 0.0591414889734507 0.1455986097038275 0.0459962970208319 0.2029392030759992 )
( 0.0963505745771606 0.0871705704708116 0.0505101581605894 0.1503499971499999 0.0401579018946916 0.1946292891968965 )
( 0.0974061596132346 0.0915006222832324 0.042752415051629 0.1546775425932787 0.0346901702949556 0.1845475197596592 )
( 0.0997798043540773 0.0968913136189255 0.035748285961014 0.1594854005632432 0.0299072719580046 0.1734194170138321 )
( 0.1036432197345984 0.1030052611705252 0.0297237047930498 0.164082253532057 0.0257173339210259 0.1622652620468937 )
( 0.1094274869838721 0.1100485078874592 0.024766835890429 0.1680687218301539 0.0221966040301902 0.1511212374591154 )
( 0.1174498973694428 0.1182879182678037 0.0203294960203658 0.1711355336024336 0.0188774816989726 0.1398349893647099 )
( 0.1281159207686587 0.1277385191120345 0.0160342060860355 0.172939523456071 0.0155221921172647 0.1284841292019756 )
( 0.0997507169394688 0.0275128025411302 -0.0281089519322396 0.1061012274290736 -0.01451301892814 0.1938343966220495 )
( 0.1047850612846997 0.0389405574053085 -0.0036188154907353 0.108204234601625 -0.0075238800387009 0.180930046411582 )
( 0.1109313216543136 0.0535682466597863 0.0278328485176107 0.1127761024726476 0.0088261279523992 0.175650511405957 )
( 0.1160212547858209 0.0643343817988644 0.0537745741782239 0.1179520394254458 0.0266467190465532 0.1765348480733569 )
( 0.1184734094458968 0.0715284545439848 0.0727721598081608 0.1229673234235675 0.04197203791519 0.1802184767845376 )
( 0.1170441622577759 0.0758641016326047 0.0836836286345606 0.127616547643589 0.0534482651848836 0.184592573132065 )
( 0.1129673444971409 0.0775456554813072 0.087442319362425 0.1313041949084446 0.0601997441935448 0.1897143546307763 )
( 0.1069175618945955 0.0778081669794924 0.0852756148775142 0.1351119277528109 0.0623126105598793 0.1944903134384768 )
( 0.1010086140462555 0.0779022352452518 0.0794383813839928 0.1393311108770151 0.0607976626050146 0.1980107284463235 )
( 0.0962941882050715 0.0786817815669743 0.0710718502435409 0.143672413682918 0.0564833755504994 0.1985115645763519 )
( 0.0928442223187385 0.0810182579008115 0.0610617298211572 0.1489821764122383 0.0501785029226975 0.1956577717457865 )
( 0.0917903478775736 0.0849693991171189 0.0515548560598813 0.1550102711767182 0.0436605728903386 0.1899374665865398 )
( 0.0926588114167887 0.0902853619178099 0.042810206401855 0.1611404050166411 0.0374976400475504 0.1810977458458303 )
( 0.0955414047716883 0.0968284280345555 0.0352451498821783 0.1673169956048042 0.0319986148045326 0.1707874030343412 )
( 0.0998547099862497 0.1040716688654276 0.0291054835300085 0.1735896117944305 0.0277020716124479 0.1604103443740939 )
( 0.1056939560595348 0.1120996952979124 0.0239286039285041 0.17942950264096 0.0239355070211307 0.1503004504650079 )
( 0.1140123766397489 0.1218301104754786 0.0194149011880955 0.1851355860571803 0.0204734545658859 0.1402322524080247 )
( 0.1252122131756028 0.1330181901756775 0.0154212526966458 0.1897804807139045 0.0171805235877821 0.1300772062697018 )