/*--------------------------------*- C++ -*----------------------------------*\
| =========                 |                                                 |
| \\      /  F ield         | OpenFOAM: The Open Source CFD Toolbox           |
|  \\    /   O peration     | Version:  2112                                  |
|   \\  /    A nd           | Website:  www.openfoam.com                      |
|    \\/     M anipulation  |                                                 |
\*---------------------------------------------------------------------------*/
FoamFile
{
    version     2.0;
    format      ascii;
    arch        "LSB;label=32;scalar=64";
    class       volVectorField;
    location    "0.0047";
    object      U_LES;
}
// * * * * * * * * * * * * * * * * * * * * * * * * * * * * * * * * * * * * * // 
 
dimensions      [0 1 -1 0 0 0 0];
 
internalField   nonuniform List<vector> 
13597
(
( 17.26857859188036 1.681157406880187 0.0233577734620247 )
( 17.268618789932244 1.7330874158453595 0.018838674402717 )
( 17.28004102774683 1.83865093727749 0.0105836325071056 )
( 17.301294237939363 1.9724154118096136 0.0018134773265516 )
( 17.321553795569958 2.082326036955326 -0.0030937049885959 )
( 17.335744044990673 2.169038062975482 -0.0050522241437015 )
( 17.35283037007754 2.2528485537227048 -0.0052567212175537 )
( 17.372813021689353 2.3397724847179315 -0.0034106353498313 )
( 17.394842889885524 2.4244787205885423 -0.0002955601143325 )
( 17.417761259920685 2.507708223484555 0.004012150768133 )
( 17.44107123532674 2.5975252559838715 0.0096701088071888 )
( 17.4682454115127 2.684606336066926 0.015012370661912 )
( 17.497073673606884 2.768837114522757 0.0209174596795517 )
( 17.525297020518295 2.8574319381523856 0.0278122731153889 )
( 17.553142601634423 2.9479675786035893 0.034322774786429 )
( 17.583523625229844 3.0372781254222656 0.0407067449792492 )
( 17.61689148811104 3.1225808674637108 0.0461403217662484 )
( 17.65017656642703 3.207113273084252 0.0506239147983996 )
( 17.68420227595982 3.295285735437036 0.0543794005465093 )
( 17.152143729245648 1.7166346941241126 0.0149641284406662 )
( 17.13736569073642 1.784307010244647 0.0078639412646779 )
( 17.130737761666193 1.922749592597539 -0.0044635964280686 )
( 17.126887454650237 2.076056861033442 -0.0159097107279538 )
( 17.120943637751793 2.189254577698315 -0.020587818286995 )
( 17.11273554747415 2.290500254418918 -0.0221554644627377 )
( 17.106887917687583 2.3886397984643115 -0.0216597420560803 )
( 17.10046137256956 2.4878890422038107 -0.0191631154236434 )
( 17.095936124801167 2.5860477897324863 -0.0152018875483849 )
( 17.090113005102438 2.6813322453871358 -0.0098670716287623 )
( 17.081600227575844 2.783914521927106 -0.0033360019349537 )
( 17.071109280259794 2.8905293042867086 0.0025084837239622 )
( 17.057261713206426 2.9964468880414707 0.0083193927868317 )
( 17.045413896974885 3.1044724468579474 0.0143690662087776 )
( 17.036488890184934 3.210750131806054 0.0189527479644415 )
( 17.030842180492005 3.312283027279922 0.0224640156444415 )
( 17.026991341683814 3.4060472591477757 0.0247422037212289 )
( 17.022036444570528 3.5022996332337355 0.0256533165533267 )
( 17.022863507965734 3.5990161003404784 0.0256037587377337 )
( 17.035255934642052 1.7476122508344896 0.0050087802455641 )
( 17.00116942918542 1.826606024810742 -0.0048474339567662 )
( 16.96955022661283 1.9844036647237784 -0.0192822198270844 )
( 16.935171673774217 2.147690321643159 -0.0304999328331907 )
( 16.89848231345069 2.2617047686289644 -0.0336998586456576 )
( 16.864631373674783 2.370032790142732 -0.0333344754897375 )
( 16.831171186156194 2.4769487060528266 -0.0307914109221921 )
( 16.790843835023733 2.580686102593401 -0.0273748613909907 )
( 16.751295463646183 2.685769851168071 -0.0227961851679402 )
( 16.71116263488841 2.7967503285022177 -0.0170258586062363 )
( 16.666955487827806 2.9113069273352883 -0.0112710471512349 )
( 16.6212629373401 3.033756636200459 -0.0068178911247658 )
( 16.575583134276034 3.1603335143225797 -0.0034435990736649 )
( 16.534200142788816 3.2819333190484725 -0.0011462672698063 )
( 16.499288756025095 3.394598459836324 -0.0007536381359327 )
( 16.47047833859095 3.4963516275497284 -0.0017386691996542 )
( 16.44206154863356 3.588847314197722 -0.0038267011629535 )
( 16.413684671094543 3.682831198449415 -0.0070865534758814 )
( 16.39484421505396 3.7822598848321833 -0.0108478463146861 )
( 16.910862298173946 1.7679822205916085 -0.0062065315723316 )
( 16.854986469620176 1.8547506332188528 -0.0181208795668526 )
( 16.796814074570594 2.0183131558303407 -0.0316604547624111 )
( 16.730083200747007 2.182945404376344 -0.0400570288987817 )
( 16.659222816963993 2.2985302670633256 -0.0414537753916264 )
( 16.592297873178655 2.406353526554728 -0.0394944424042549 )
( 16.521011013466183 2.516099335222496 -0.0357417569511362 )
( 16.444307845772272 2.6246779178535946 -0.0316157129919259 )
( 16.373089750905393 2.736241554583267 -0.0274285849078578 )
( 16.303368720181854 2.856067853945665 -0.0237084086180682 )
( 16.228913650125012 2.9829505903729894 -0.0210710140400872 )
( 16.160654806478693 3.117200869348352 -0.0202110490283351 )
( 16.09810209552307 3.253976825194996 -0.0210990315431316 )
( 16.03741986476877 3.3859316826837738 -0.0238836650340252 )
( 15.982199944654734 3.5012617861009527 -0.0281878155722769 )
( 15.933447631717092 3.6022665217425938 -0.0328101337459021 )
( 15.88820689417224 3.695418970115595 -0.0380623166709557 )
( 15.841277874370746 3.790783464219008 -0.0441566941492888 )
( 15.798863229410632 3.898845926453439 -0.0505818302614695 )
( 16.782942920263793 1.7755389692191317 -0.0178248396148306 )
( 16.70737032081766 1.8700479233636564 -0.0293026342760898 )
( 16.61860364190986 2.0359285045756894 -0.040650009383427 )
( 16.516288958592508 2.193048688435685 -0.046068709465005 )
( 16.414456292019747 2.305166689864699 -0.0455743590144303 )
( 16.315262975759477 2.41145727260666 -0.0432109572935358 )
( 16.209728185661888 2.521553518695837 -0.0397842584101875 )
( 16.10443195304555 2.633002133859352 -0.0365475699339519 )
( 16.00708064250935 2.7472669651864945 -0.0349276268402283 )
( 15.910446401135507 2.871880819750664 -0.035389813722015 )
( 15.81173007275114 3.0115720442279046 -0.0375141517909873 )
( 15.72009546076949 3.158196613354152 -0.0412829183114935 )
( 15.634467280775484 3.303201130195033 -0.0469371536469489 )
( 15.550996761400937 3.440702619236459 -0.0542899769405945 )
( 15.47216306031635 3.555586530442733 -0.0621371702085532 )
( 15.398251369312078 3.660772323937458 -0.0689867371452969 )
( 15.329948864266044 3.7628735023319657 -0.075259100908366 )
( 15.26332215299566 3.866563502837112 -0.0814219906321533 )
( 15.197670136263714 3.985120156367119 -0.0874306728975173 )
( 16.65420714259508 1.7692693526171777 -0.0282904078670734 )
( 16.55552939952776 1.8685494245818528 -0.0387848131932647 )
( 16.431740727222202 2.036404136269657 -0.0471272663924933 )
( 16.298774707694676 2.184803589524748 -0.0497916113909986 )
( 16.1722185721345 2.291344466462471 -0.0484180338543898 )
( 16.04852675043218 2.3958967385295296 -0.0465666490955252 )
( 15.922122219627417 2.5038142298019617 -0.0452882611852914 )
( 15.793930590569548 2.61543745316788 -0.0455273043714968 )
( 15.665969143831228 2.732795087610793 -0.0484024118611945 )
( 15.53981829370404 2.868162571424944 -0.0532257759686384 )
( 15.42022604401316 3.016631063353598 -0.0593866469588299 )
( 15.30280255690082 3.1690780595989887 -0.0672614440753218 )
( 15.19322282948809 3.3213836123311964 -0.0757456780513585 )
( 15.090560051842637 3.462337613157641 -0.0841034713286877 )
( 14.99020919032616 3.5814986306282623 -0.0918932113969094 )
( 14.899331515871964 3.688262695035744 -0.0979186911415307 )
( 14.811718867264254 3.792940257825461 -0.1027165801591735 )
( 14.72500218761592 3.900546885526185 -0.1066837719678882 )
( 14.639562802402056 4.024481561426177 -0.1094562815140921 )
( 16.516641499318606 1.7514865388980323 -0.0372820409284275 )
( 16.39492859874471 1.853869393071467 -0.0464120769741722 )
( 16.24369545844267 2.018775729763952 -0.0522832003360414 )
( 16.086582663840463 2.1566710398030566 -0.0533640135547592 )
( 15.93930196687175 2.2577891897476228 -0.0529751020003703 )
( 15.792288065965726 2.358176331009023 -0.0534383347231764 )
( 15.644697141642247 2.4663714049127936 -0.0551861627582165 )
( 15.49667787816046 2.581048200217395 -0.0596010998029335 )
( 15.34495697990383 2.7011893536370084 -0.0665331244981917 )
( 15.201273907436464 2.843045386784604 -0.0740664457732295 )
( 15.06090532533721 2.998602331770361 -0.0822904466028484 )
( 14.91853828983388 3.158341667145743 -0.0914979213484231 )
( 14.78829895709366 3.312728549851688 -0.0994012233977085 )
( 14.66637324015986 3.4529755915163496 -0.1059237542520633 )
( 14.546713634593193 3.577779911039402 -0.111178289383294 )
( 14.436283552573304 3.6838182896415104 -0.1141967693346807 )
( 14.330589803934323 3.78734074622756 -0.1157268368289621 )
( 14.22349718623139 3.900680688768852 -0.1162593933550049 )
( 14.117700440522231 4.02910814896351 -0.1155292954222001 )
( 16.38230650741197 1.7250458521825132 -0.0453872904085675 )
( 16.238777157544906 1.8240805957481596 -0.0526422838647613 )
( 16.064451037586057 1.9818991303665172 -0.057564236863883 )
( 15.88792272938947 2.11084506640221 -0.0591367167495346 )
( 15.720420960780318 2.2083500794488926 -0.0605890461875613 )
( 15.5525297161839 2.309311892837232 -0.0637547940734986 )
( 15.38425854129143 2.41929736797501 -0.0686555375549908 )
( 15.219832168276454 2.532746213909708 -0.0760704265213691 )
( 15.04892255363638 2.6551785685808174 -0.0851758551086413 )
( 14.88624888644424 2.804610360492076 -0.0937579425304431 )
( 14.723379809129336 2.9664723918106315 -0.1017668740656558 )
( 14.562110418271844 3.1324490412664163 -0.1090624494168408 )
( 14.411841485218922 3.2891346734988147 -0.1146504013052678 )
( 14.266485220827123 3.424342273213981 -0.1184460942316527 )
( 14.132849839710053 3.5434092788423377 -0.1202665316891718 )
( 14.00345178616712 3.6502590321939934 -0.1203244302309816 )
( 13.87744153420819 3.758139381003567 -0.1189279991266921 )
( 13.751637054602051 3.878227623183728 -0.1161495246003126 )
( 13.626938739060908 4.012349572742834 -0.1123772755290196 )
( 16.25286049659208 1.6843391242026355 -0.0523878412281777 )
( 16.0887799518193 1.7753760094658526 -0.0591422084443866 )
( 15.893748179741488 1.9274935957823027 -0.0639692007321426 )
( 15.702190493992331 2.050444921037075 -0.0668144784414574 )
( 15.515268292160451 2.147994297723993 -0.0705070731539968 )
( 15.332954965673135 2.247871932874839 -0.0761265113418092 )
( 15.150817722823255 2.355274110812031 -0.0831288289276153 )
( 14.970613859047964 2.474525730456808 -0.0914360061010077 )
( 14.7850887322932 2.604540692701653 -0.1004239673412328 )
( 14.59476757176816 2.7541755208739582 -0.1091428502378721 )
( 14.409857513140585 2.920322466705345 -0.1154232545692915 )
( 14.233624891639666 3.088053009868912 -0.1193195192896744 )
( 14.059410834869537 3.244746307330943 -0.1223772819657424 )
( 13.893833132899656 3.3793941772915934 -0.1232328796990349 )
( 13.74594610605756 3.4944811240321787 -0.1220893427864217 )
( 13.597856228063357 3.6037527390551336 -0.1200433905008656 )
( 13.450906395142242 3.713932600849192 -0.1163623597351696 )
( 13.304456449935865 3.8364206084591057 -0.1108917511080398 )
( 13.15671336103769 3.9758190088540792 -0.1041432248504871 )
( 16.12346576397789 1.6374601488693197 -0.0588568890922667 )
( 15.942612695282213 1.727191283689968 -0.0661281587211392 )
( 15.731824035708362 1.8725299003482727 -0.0712319129817089 )
( 15.527123018210816 1.985405105724488 -0.0754694318214983 )
( 15.327136623358646 2.083398247954854 -0.0813182587732087 )
( 15.132994421855978 2.1783603212260094 -0.0888036439760832 )
( 14.934840650280956 2.280036226280019 -0.096686507410524 )
( 14.73298079935098 2.401266243517977 -0.1048977574406056 )
( 14.534271485619527 2.534247180894589 -0.1122266804648624 )
( 14.327479140092771 2.6866667685594736 -0.1186047588287752 )
( 14.123172461791492 2.859634026668449 -0.1230622470871437 )
( 13.927867109048906 3.0312613947528937 -0.1249027445128459 )
( 13.73565005815792 3.1842964178679054 -0.1250483491798721 )
( 13.555309307656628 3.3190050752134934 -0.1232622062367891 )
( 13.385699762057536 3.4342276536793754 -0.1201064178808573 )
( 13.215138927545777 3.54167883305078 -0.1156090099139756 )
( 13.043187996140803 3.6514434878262 -0.1095021439815628 )
( 12.873009771137411 3.774665899827953 -0.1026057508154408 )
( 12.70288083247346 3.9201393452990256 -0.0952834369988134 )
( 16.0039616600713 1.5882798026918776 -0.0656648682918091 )
( 15.812218862571758 1.678127578510572 -0.0729121230416332 )
( 15.582248949089225 1.8143905444060493 -0.0788454840780724 )
( 15.369055194156129 1.9164790719493707 -0.0848090831775756 )
( 15.159530683271845 2.009504910917167 -0.091913752691716 )
( 14.94923746930916 2.101985702821538 -0.1001442298346864 )
( 14.736370081187006 2.1992165313274223 -0.1084452575833588 )
( 14.521244888162371 2.315362465714716 -0.1155867315048242 )
( 14.305100047766938 2.4538548520418377 -0.1206084472517342 )
( 14.084854835139604 2.61138806173944 -0.124262564117001 )
( 13.86208668048233 2.7851117143987616 -0.1263776300284587 )
( 13.641250905399492 2.962146704872276 -0.1261825736592112 )
( 13.435417945577376 3.1132577064697067 -0.1239459620389901 )
( 13.239141224925586 3.2468929738678525 -0.1201153996510158 )
( 13.042745041640844 3.362424700591374 -0.115180513847637 )
( 12.84543340167481 3.466863801584476 -0.1091310754003487 )
( 12.649318054447054 3.577155772404216 -0.1028441468388453 )
( 12.45937200833808 3.703776943846368 -0.0966745825634808 )
( 12.266433494914263 3.856570109216817 -0.0898227514202838 )
( 15.890811675403633 1.5327178771626722 -0.0732416239438523 )
( 15.68694610435705 1.6208229670586087 -0.0803498090455229 )
( 15.44213873634624 1.75087430747688 -0.087358028086243 )
( 15.222056981237037 1.8425690527105396 -0.0947095575490868 )
( 15.00236266025374 1.926412018484535 -0.102088539046753 )
( 14.778121204549237 2.0174665380854813 -0.110122196551504 )
( 14.557039594522143 2.1208163371925104 -0.1174257324271953 )
( 14.329292904872313 2.238989829183412 -0.1226275689017451 )
( 14.09625414899275 2.3795719411908647 -0.1256378040247578 )
( 13.858486871773795 2.536237691526694 -0.1273202648552907 )
( 13.617799670380656 2.7059419203321173 -0.1269916150969631 )
( 13.376747444459877 2.878020630292657 -0.1245156248633899 )
( 13.147953354022029 3.0316321520851752 -0.1207635294833014 )
( 12.9274665622098 3.170229163820526 -0.1157637916584341 )
( 12.705572632098756 3.284033759294773 -0.1099888114822036 )
( 12.488431944888806 3.3837031103992543 -0.1042144331541411 )
( 12.275851893802797 3.4945558117119453 -0.0988750101047534 )
( 12.064940190885627 3.6304722296601817 -0.0928089640525691 )
( 11.848387971234432 3.7932730116682585 -0.0841224023052037 )
( 15.783955246325016 1.466664299127561 -0.081394149780198 )
( 15.569780978314649 1.5523530173109783 -0.0890904529099955 )
( 15.318728844124909 1.679308231744266 -0.0964872087924969 )
( 15.087019019119747 1.7677277991775346 -0.1041918935655902 )
( 14.85866978608271 1.851888287796016 -0.1110040430503084 )
( 14.626024457579067 1.942700714425647 -0.1173735472015941 )
( 14.393949159212704 2.046283728036906 -0.1229411941207846 )
( 14.150051679330948 2.161892309432332 -0.1263283975228565 )
( 13.899786800529425 2.297193900964185 -0.1282697083848963 )
( 13.647334784919911 2.4563964247345105 -0.1284879492405582 )
( 13.385652614703284 2.6305966286802307 -0.1261003392739329 )
( 13.1256347341209 2.7979484405400443 -0.1223155137344497 )
( 12.870845286598072 2.949639799674368 -0.1172829415126856 )
( 12.620749570459497 3.085518528229209 -0.1118396364687039 )
( 12.382705177496936 3.1919293338829924 -0.1068832103798974 )
( 12.153985941055446 3.292134488955102 -0.1013868160158574 )
( 11.922198890845298 3.408444626221359 -0.0948959509585925 )
( 11.685192361483834 3.550750053324644 -0.0867062729079425 )
( 11.437601364996755 3.728561301358387 -0.0745782362551922 )
( 15.687690845073968 1.391864296979387 -0.0897888623379147 )
( 15.46984385286114 1.4772053133773373 -0.0976073591344938 )
( 15.209045461645314 1.602367593723937 -0.1045869892772522 )
( 14.966734997327796 1.689807666214116 -0.11159512691661 )
( 14.729115045438808 1.774063914007663 -0.1174679009035751 )
( 14.49115822092697 1.8615161340534048 -0.1222821532470586 )
( 14.246874620702709 1.96194437281163 -0.1261693206468798 )
( 13.99373178963206 2.076679910914171 -0.1282658741997159 )
( 13.726237841675918 2.2085959880035047 -0.1288639375824149 )
( 13.45229425566885 2.367305258107831 -0.127811381149271 )
( 13.168621416607728 2.543355627970916 -0.124545658556798 )
( 12.882804005444711 2.7146462334082737 -0.1200129741398254 )
( 12.605676882368304 2.866844653837086 -0.1144270073285543 )
( 12.339182079811684 2.991867686290521 -0.1092219178742515 )
( 12.085295526947862 3.092840984534706 -0.1043866745580385 )
( 11.834179303375556 3.1997320409541588 -0.0975749369051837 )
( 11.577813074708402 3.327978874676252 -0.0890042653402484 )
( 11.309978996867208 3.472733423078141 -0.0779899127757883 )
( 11.02206690902281 3.657035709517319 -0.0633228729702426 )
( 15.601757008185592 1.3185729030160496 -0.0977974918066895 )
( 15.375845058396678 1.4046010584380442 -0.1047527812636932 )
( 15.0965266606332 1.527749469340015 -0.1112973937792214 )
( 14.84963934131466 1.6077177234687308 -0.1171283141199492 )
( 14.608789892611403 1.687826075391185 -0.1222284457123882 )
( 14.365583182243755 1.774314945747228 -0.1262143252623869 )
( 14.10942354355182 1.87161438250068 -0.1285058267806381 )
( 13.841050531808037 1.987070560258586 -0.1293254902080217 )
( 13.561141452503486 2.1176370871622687 -0.1285409341112554 )
( 13.26812200385445 2.27067949631108 -0.1266673882171393 )
( 12.959221320111098 2.4467044106944145 -0.1232938033598571 )
( 12.647068096635891 2.617257970982913 -0.1180048523943653 )
( 12.346745276672523 2.769989822216996 -0.1121907531792418 )
( 12.068750275354155 2.8906286934910863 -0.1069076006893576 )
( 11.800210520528664 2.9909610385898207 -0.1004267506853112 )
( 11.525488255505298 3.1020946901950115 -0.0919787190618169 )
( 11.2366833222684 3.235851581970484 -0.0815893941848414 )
( 10.93009083063452 3.3930821577403147 -0.0684668439701044 )
( 10.612375163947693 3.5971688018620256 -0.0533427948651992 )
( 15.52297567680004 1.2485979103266045 -0.1048203911767431 )
( 15.289239766146304 1.332747762368849 -0.1109616653587266 )
( 14.999072195808871 1.451338934233992 -0.1165971906823767 )
( 14.747052520759114 1.522922528001046 -0.1213001722495339 )
( 14.50235611906644 1.5961794419977329 -0.1255287581651965 )
( 14.250657719672168 1.6878137327322775 -0.1285539233035283 )
( 13.98386640970977 1.780234099461089 -0.1297733506686306 )
( 13.698084521709252 1.8878646611080037 -0.1291114547312968 )
( 13.401217926323422 2.0212873021022677 -0.1275364899342322 )
( 13.089890324449902 2.17006513357667 -0.1255163092893681 )
( 12.752156709366028 2.3485684522949373 -0.1216923998942078 )
( 12.412550226145862 2.521768032218143 -0.1157275900273556 )
( 12.101050853119082 2.665486740635691 -0.109646461118164 )
( 11.81463254094301 2.7820720549482267 -0.1030508465483731 )
( 11.528068374029226 2.8867039339114284 -0.0949274794860622 )
( 11.226383923133971 3.001822105118145 -0.0855779352227966 )
( 10.90071620563617 3.1389519525860217 -0.0727384426686216 )
( 10.556159629678993 3.3135738157191184 -0.0595116551655007 )
( 10.230433949204016 3.5578912265048808 -0.0464498409004994 )
( 15.45269494239306 1.1796216605041197 -0.1097123026557141 )
( 15.208548345786966 1.2574821029325731 -0.1159523370889287 )
( 14.91276959630277 1.3747824401232318 -0.1205724255620184 )
( 14.660493761316284 1.4435978546231985 -0.1240327870784266 )
( 14.408262879745514 1.5128627591426589 -0.1269578367106645 )
( 14.14227853978187 1.6006378784640514 -0.1287532252802029 )
( 13.863422969213651 1.6856378184019207 -0.1290981286868576 )
( 13.570876855638298 1.7913026369512763 -0.1279111878540308 )
( 13.255203206839388 1.9253517361320904 -0.1264121461082084 )
( 12.91913588532051 2.066541237267712 -0.1241567626432202 )
( 12.568208701767592 2.2390503949136007 -0.1196496417754912 )
( 12.20831519215777 2.423202409813177 -0.1131180261291758 )
( 11.882363602130598 2.563398928683736 -0.1059373136594156 )
( 11.57845060664487 2.6718423344045954 -0.0979796484284479 )
( 11.263434098054963 2.7804769167998997 -0.0895516063593571 )
( 10.924302197923986 2.8955117455433217 -0.079033555365002 )
( 10.56618759240656 3.0426510531321296 -0.0662024963605017 )
( 10.208185366056092 3.2426365256548886 -0.0551418588723396 )
( 9.893849706317262 3.536140782821431 -0.042697500100704 )
( 15.385926064030194 1.1100589557127616 -0.113819486985694 )
( 15.135330922126771 1.182671923020626 -0.1191154866443376 )
( 14.834419404096067 1.29438198516583 -0.1229270420983068 )
( 14.58262609261704 1.3605969222811118 -0.1253501428025071 )
( 14.323525249322543 1.4319971353601768 -0.1270004464784135 )
( 14.044343252213809 1.5148662835406257 -0.1281934477147195 )
( 13.757343571172578 1.589050810247141 -0.1280402595452199 )
( 13.45200627198367 1.69533422477665 -0.1266938454764508 )
( 13.115955386713134 1.8305382512609325 -0.125265088074822 )
( 12.76052210771607 1.972361583874664 -0.1223128761588287 )
( 12.389722597888616 2.1335348469770143 -0.1167881497129111 )
( 12.015016191511542 2.302149415969497 -0.109567141030934 )
( 11.67357957072773 2.444297612060389 -0.1015947599569565 )
( 11.342755319790724 2.558584831303916 -0.0930357958698453 )
( 10.997701011322668 2.6606274215867445 -0.0844557336087213 )
( 10.630614747606844 2.778233788307078 -0.0742398097190342 )
( 10.24855779023098 2.939036188463554 -0.0630380404389373 )
( 9.895818152195568 3.180107147537439 -0.0534669936189665 )
( 9.572707052575907 3.5351684304309003 -0.0406314151800178 )
( 15.3266277043398 1.038278302241954 -0.1175900923227639 )
( 15.072049834314948 1.1059868468843828 -0.1214822048977594 )
( 14.763532092373556 1.2080266043474064 -0.1242469635389509 )
( 14.510482294910322 1.2753617610293952 -0.1255383916002254 )
( 14.243936589711884 1.3444882567544576 -0.1260999608666358 )
( 13.952031642441993 1.424601819869026 -0.1272207980062004 )
( 13.663785771032272 1.4994240774774172 -0.1272063079470307 )
( 13.344362534382702 1.5952983451393168 -0.1255724889819118 )
( 12.986039837548644 1.7271018463092342 -0.1239324278034236 )
( 12.608872347417776 1.8731748318543395 -0.1201330905098171 )
( 12.211746081558395 2.032015642048727 -0.113560904826478 )
( 11.83022554550768 2.186050754936132 -0.1065620605801547 )
( 11.4683468932076 2.318741780167228 -0.0986658259911747 )
( 11.106637737346476 2.435203391555899 -0.0889151910328509 )
( 10.741783214235172 2.5406744955324307 -0.079112592942422 )
( 10.355743045827383 2.6701200530259115 -0.0693384075519169 )
( 9.958695030979523 2.8523406888862235 -0.0600584310880846 )
( 9.60168066252581 3.1309313645269783 -0.0512941752873989 )
( 9.186270880817762 3.5009584344386298 -0.0404494264572297 )
( 15.2782288011117 0.9667296497933776 -0.1196796905032276 )
( 15.014313926088038 1.025246471237478 -0.1224049201108001 )
( 14.699463755736208 1.1214152622460465 -0.1243854971189301 )
( 14.44206471024332 1.1885661298294083 -0.1249081773324061 )
( 14.168862544403227 1.2569067624823784 -0.1249079990495258 )
( 13.867356551271522 1.338448293750713 -0.1256236244225983 )
( 13.567187757022896 1.4110068850933857 -0.1252615108813204 )
( 13.24091233095588 1.4970090974878625 -0.1237092897528224 )
( 12.870901314838612 1.6193581420719774 -0.1219286867491281 )
( 12.471349529744664 1.7577829141060983 -0.1177992013507736 )
( 12.053211435879351 1.919835310443139 -0.1111388910205847 )
( 11.65733543424002 2.0765406049649204 -0.10438552987201 )
( 11.270725173050538 2.199462593088931 -0.096137478765004 )
( 10.886824916002018 2.3071223538272188 -0.0860810052062441 )
( 10.49365913446072 2.4279605707320413 -0.0745485098278397 )
( 10.089747482285205 2.5695661866414463 -0.06379350646156 )
( 9.69174899448481 2.7744536782722964 -0.0570227741892231 )
( 9.274596760661987 3.083140263409564 -0.0484730094266588 )
( 8.691528929105486 3.4036142938851093 -0.0401038479405081 )
( 15.232494548797025 0.8904425324910352 -0.1206651063996261 )
( 14.965035741634637 0.948618000129254 -0.1220722056739686 )
( 14.648601800509484 1.0392647093279586 -0.1229940837078606 )
( 14.38227984006566 1.0967435449342935 -0.1231329601413919 )
( 14.102087130564245 1.1662735511340363 -0.1232026058645811 )
( 13.79407366905644 1.2515802641229918 -0.1237066764116267 )
( 13.479929842146923 1.3172667014751152 -0.122882985066988 )
( 13.147565828074594 1.3956696035651213 -0.1217674693092853 )
( 12.75832954733718 1.5139419915424246 -0.119480408827271 )
( 12.340645199454531 1.648144257736024 -0.1149454404705331 )
( 11.90653366823664 1.8035009284343644 -0.1090526336759879 )
( 11.481958455420363 1.957841535500414 -0.1015370175318051 )
( 11.08124966330069 2.084731244982555 -0.0924750587787708 )
( 10.68994022920392 2.189650239822569 -0.0831868219256526 )
( 10.270103336526637 2.3154287609691986 -0.0726560385279168 )
( 9.839516747116232 2.469261975220445 -0.0641064902494185 )
( 9.43168936875938 2.693331350594244 -0.0562491327977764 )
( 8.9205053539085 3.0110295887785785 -0.0476243477590176 )
( 8.082140607203034 3.226811343615695 -0.040794476855054 )
( 15.18908532665849 0.8133428974470035 -0.1204750138269624 )
( 14.921387573257762 0.8736687349082224 -0.121172063565941 )
( 14.601965833615452 0.9623840792968702 -0.1211716988002179 )
( 14.331359999931044 1.015643788187715 -0.1209929974161983 )
( 14.041390934418953 1.0803955400831364 -0.121121076851327 )
( 13.72001714455934 1.153182266111059 -0.1209543887681803 )
( 13.395952156250988 1.216511931550868 -0.1203043684810132 )
( 13.057250656910872 1.290966130587436 -0.1198542991910591 )
( 12.642277660925552 1.4047637497285288 -0.1170417316424863 )
( 12.206313634266769 1.542127043651433 -0.1122270360157473 )
( 11.768382562899808 1.6895370574117443 -0.1067913077673272 )
( 11.33109977400954 1.842276431846526 -0.0982513765736893 )
( 10.913740560222754 1.9749364427519231 -0.0888216916811311 )
( 10.495361146484605 2.075766527587265 -0.0795290370605395 )
( 10.063083635329912 2.196488504292298 -0.0704126007901256 )
( 9.616928334715528 2.3618167446176592 -0.0640184075309669 )
( 9.148613450497834 2.608050571918324 -0.0563835799005066 )
( 8.566213094287958 2.922963238903004 -0.0506768903158803 )
( 7.313910285226402 2.938630550542962 -0.0419369556573175 )
( 15.149202725907092 0.7446693570255626 -0.1191983609653224 )
( 14.877845430757022 0.8002091712970539 -0.1197666397773965 )
( 14.556581576330856 0.8853614016976002 -0.1193887011860171 )
( 14.285391189481029 0.9388164910749184 -0.1189213207855635 )
( 13.985666629476132 0.996098248364966 -0.1184744095650018 )
( 13.657662685124397 1.0572638074423113 -0.1179155026629258 )
( 13.324181528644976 1.1241053820702227 -0.1183044546315099 )
( 12.967157605958848 1.2022772412870837 -0.1178993596321421 )
( 12.53304664400217 1.3040501930236703 -0.1146403926025982 )
( 12.075061912782363 1.4371332659791674 -0.1098772995378951 )
( 11.630137296818434 1.576592226974105 -0.103442607548118 )
( 11.193218726466412 1.7138393917029529 -0.09541648700845 )
( 10.759426297187176 1.840917095128153 -0.0867590656306324 )
( 10.312365763311464 1.9478225839792176 -0.0766288611317075 )
( 9.858494773116846 2.069481489171311 -0.0660459770241756 )
( 9.39443600942913 2.24402289513175 -0.0589165720849772 )
( 8.847689868714989 2.5030752024290206 -0.0536851822358062 )
( 8.067458907441347 2.749179324958643 -0.0484375474753069 )
( 6.562042564918481 2.6132903281377406 -0.0386068780408025 )
( 15.116920240039228 0.6747321371200902 -0.1171477631901589 )
( 14.841091052507428 0.7286674674735136 -0.117453565391663 )
( 14.513131483424331 0.8098203049756393 -0.1169695449407109 )
( 14.239519921261891 0.8571863411686459 -0.116396213736073 )
( 13.933729555789988 0.9137698384164562 -0.1154763390141528 )
( 13.60517608006908 0.9775680840704638 -0.1156083965508296 )
( 13.267846098190986 1.0425121963294477 -0.1171289858316251 )
( 12.888541384719918 1.114079074801668 -0.1162837724391422 )
( 12.442523973669632 1.2103150571183618 -0.1129833697769799 )
( 11.975801628458289 1.3371581103319994 -0.1083021759300466 )
( 11.512658434883775 1.4694361122025246 -0.1011607113734158 )
( 11.052042477282267 1.5895492266171465 -0.0928921244572229 )
( 10.59917324642442 1.7022005614753246 -0.0851939024253353 )
( 10.135556543137833 1.8102368473538617 -0.0764175262818136 )
( 9.664621906483466 1.9409096071416756 -0.0660037263234585 )
( 9.163831951869131 2.1383133891612727 -0.0592591328363255 )
( 8.554867240284631 2.390054868468184 -0.052489165646263 )
( 7.520186143072199 2.5067576171955204 -0.0438309644935357 )
( 5.911239789519854 2.299915005982512 -0.0358695189018328 )
( 15.09057935071133 0.6021399302466062 -0.114570201611544 )
( 14.814466869010904 0.6571932537484589 -0.1143830709959424 )
( 14.477872970886118 0.7363905241916973 -0.1138352700470572 )
( 14.196816583610936 0.7777170053333352 -0.113226774511548 )
( 13.884478835774445 0.8293277758595601 -0.112722435689969 )
( 13.55182576101654 0.8916123741038559 -0.1138295414397515 )
( 13.208678046510018 0.943725044615824 -0.1152288764098187 )
( 12.816916533115236 1.0112262188322192 -0.1141855384923415 )
( 12.368885022466928 1.1163254539368197 -0.1113503912087719 )
( 11.89484938192732 1.2370084574382445 -0.1069924266738436 )
( 11.408095268143647 1.3648682896251505 -0.1005687016507799 )
( 10.92382936673794 1.470733718947491 -0.0913543967286949 )
( 10.45289922924056 1.5706899036966375 -0.0840425034431521 )
( 9.962132924802868 1.6759676303319542 -0.0765112134658214 )
( 9.474738204843195 1.8106900310187255 -0.0680909950762242 )
( 8.91799683938959 2.020045803922557 -0.0627576260243726 )
( 8.230200577899923 2.2453598870369014 -0.0547887592272915 )
( 7.058077705150538 2.264712237251055 -0.0424869342256896 )
( 5.30899545718025 1.9818445665516728 -0.0324962462823246 )
( 15.067441620614868 0.5394524449712805 -0.1119114955815841 )
( 14.78989745552943 0.5898147118499859 -0.1115459967470465 )