/*--------------------------------*- C++ -*----------------------------------*\
| =========                 |                                                 |
| \\      /  F ield         | OpenFOAM: The Open Source CFD Toolbox           |
|  \\    /   O peration     | Version:  2112                                  |
|   \\  /    A nd           | Website:  www.openfoam.com                      |
|    \\/     M anipulation  |                                                 |
\*---------------------------------------------------------------------------*/
FoamFile
{
    version     2.0;
    format      ascii;
    arch        "LSB;label=32;scalar=64";
    class       volScalarField;
    location    "0.0026";
    object      k_LES;
}
// * * * * * * * * * * * * * * * * * * * * * * * * * * * * * * * * * * * * * // 
 
dimensions      [0 2 -2 0 0 0 0];
 
internalField   nonuniform List<scalar> 
13597
(
0.2627353159961489
0.2652910984942268
0.2686835677230303
0.2724256260735235
0.274169386350865
0.2743970895269347
0.2738022129810155
0.2713711176376885
0.2688340294145153
0.2659108951837889
0.2624153071826505
0.2593508538845823
0.2561332662146496
0.253393930232432
0.251803768383473
0.2514881704290033
0.2513811796313352
0.2502279329396875
0.2501176564333756
0.2656683617029653
0.268552380471722
0.272293816285998
0.2774091630226067
0.2791072954042657
0.2789055378621499
0.2774682776663921
0.2751925815784428
0.2729851895700375
0.2696536635602221
0.2655799808976084
0.2614514616960694
0.2571358734763651
0.2533063543297594
0.250638810451242
0.2489305506304061
0.2475920778442123
0.246100337741055
0.2455931248376297
0.2683572284648276
0.2707930298515265
0.2739457122519516
0.2771460823444328
0.276156088058915
0.2743419721051238
0.2709648876447159
0.2670846912889968
0.2637702703707638
0.2601696424455265
0.2568219387139759
0.2544398092494415
0.2529385505119957
0.2524051754183929
0.2529021762237722
0.254005102866718
0.2554954104484528
0.2572569413225353
0.2589987086036031
0.2693388510904724
0.2709746651615043
0.2725322990823853
0.2726556460954903
0.2698301256036609
0.2670397930392414
0.2642446353112845
0.2625132901142535
0.2619239363416252
0.2625011820258338
0.2643071476295455
0.2672025860521639
0.2703129392772579
0.2748298890531443
0.2795388715503742
0.2832461467655778
0.2868462613650311
0.2904639565218139
0.2934807675448931
0.2698119713822581
0.2695641975270311
0.2687754422355151
0.2675124777924296
0.2655077207761722
0.2653098366405427
0.2669734124277527
0.2706220642953458
0.2756883053040017
0.2822651208595087
0.2899965378531549
0.2978585696014063
0.3052972961938601
0.3126958231778908
0.3193181795796151
0.3246961125128498
0.3292397468463456
0.333092566987526
0.3359861793138477
0.2684430582671206
0.2660681326350611
0.2639433539472633
0.2641982900094187
0.26595281356647
0.2711295823862504
0.2788770145623369
0.2887892593942614
0.3000732475226608
0.3121320080223319
0.3236434081622781
0.3336119855878079
0.3428815564592726
0.3506514787785677
0.3572560284382851
0.3625485353125469
0.3671415531427297
0.3706672672030845
0.3729481111340754
0.263691579354722
0.2604914903844992
0.2606918931540056
0.2653801999829791
0.2726652110147041
0.2834238116763654
0.2964400281797106
0.3113512095026325
0.326631839394788
0.3409293817936459
0.3540103340113831
0.3651066916707326
0.3746998712911368
0.3825248629020077
0.3892868279512198
0.3949948742810193
0.3995762256309363
0.403389939675726
0.4060391498552791
0.2585339764479619
0.2557787307464803
0.2601155642920067
0.2701699393283422
0.2826796906591516
0.2981124446133261
0.3150509260924524
0.3332868841401183
0.3510873828008674
0.3661075849180094
0.3803112250206185
0.3928326704801803
0.4023064659416894
0.4104478107398773
0.4172829893056657
0.423585221623575
0.4290745410757171
0.4340429362240978
0.4380906542986799
0.2528886485318282
0.2517332703167096
0.2609234828090823
0.2758629135120432
0.2931764326782939
0.3123859297285737
0.3321632474984497
0.3523099640592996
0.3714424021852619
0.388781279698719
0.4036509776590926
0.4166794297333218
0.4265820173070291
0.4356582281587386
0.4438943381939026
0.4515391717149885
0.4588496813664038
0.4659588349039066
0.4727847298275854
0.2475148517626684
0.2494880053220797
0.263161920014736
0.2822974592773701
0.3033760940625556
0.3255358218893514
0.3477398884543443
0.3699480940897598
0.3901638848755607
0.4081407698238697
0.4236619451483235
0.4372122161975576
0.4489150062566048
0.4597199685705845
0.4702904784303532
0.4810124566650756
0.4917697479918617
0.5023840246956336
0.5130970814543279
0.2425073863218705
0.2473506130060441
0.2658755201910112
0.288517741281112
0.3119153998214704
0.3370129705295733
0.3617570732203768
0.3856839632089753
0.4070677989368062
0.4249818319429474
0.441538172775444
0.4571096604003892
0.4711121139566137
0.4846365037831256
0.4986158138328205
0.513560253687157
0.5292437517362051
0.5445502255060806
0.5605226008799472
0.237405599352524
0.2455810804671826
0.2693914435965426
0.294706267468961
0.3202822505025826
0.3472419897730658
0.3740271730444771
0.3992194985922583
0.4209578955168008
0.4401986322337377
0.4586412530417665
0.4770591383824699
0.4944190634051744
0.5119655075734567
0.5308344875074559
0.5506720646538638
0.5713628585613416
0.5929603957300035
0.6159588014910516
0.2328193628746594
0.2448395676728852
0.2728310011668561
0.3008496875925351
0.3291646173280733
0.3574211754340324
0.3849284147000911
0.4111338236770223
0.4341590104344239
0.4548530663495695
0.4761717082893592
0.4980407679197294
0.5197082362071708
0.5428689495275015
0.5669624870765818
0.591901579927262
0.6192899221562014
0.6489802336616924
0.6792108606058618
0.2289476343023739
0.2444088956845335
0.2761978050078961
0.3062431919845487
0.3368597855307548
0.3667742041507862
0.3945715392919995
0.4203708419383043
0.4452072681154111
0.4690710957325468
0.4936845227863401
0.5203111043370815
0.5474059777895791
0.5758269625278328
0.6059946114774232
0.6383982304548603
0.674200556837499
0.71211529172
0.7508401714034388
0.2257860812882474
0.2447830139947708
0.2807868539005848
0.3121303485274916
0.3437361873969588
0.373906350273223
0.4023818186801572
0.4292459920616898
0.4559568592522549
0.4831445247673236
0.5122612173581834
0.5443560450379747
0.5781053029511709
0.6122865771591662
0.6493969913037433
0.690656688094612
0.7354561768471537
0.7830539492479184
0.8389201973359595
0.2229021998685106
0.2448767592670232
0.2838414734467939
0.3172439664779208
0.349545071437253
0.3795830464964142
0.4087231009216287
0.4377145816237205
0.4672566716077337
0.4975839706820102
0.5324606510401518
0.571584860067953
0.6114512887351299
0.6519048879021795
0.6967042076016559
0.7467539178727813
0.8024275523043585
0.8677215829339843
0.9544877817249005
0.2205564734443633
0.2452778061620107
0.2867739452652187
0.3214069922456672
0.3541913398865132
0.3851511145192871
0.4151950508609463
0.4454773948042067
0.4778636914443916
0.5128760496470363
0.552231013098554
0.5979495306209976
0.644948222895699
0.6930572429642164
0.7468298196557399
0.8076879257013253
0.8789026341015652
0.9729059411862698
1.09373361983712
0.2201395179687718
0.2470441616717316
0.2897222965167968
0.3244781710975696
0.3576526143132673
0.3896832691391966
0.420679206484947
0.4528879361823467
0.4889105120675289
0.5285360368510522
0.5735685646242588
0.6257268445418046
0.6799691817635302
0.7370895321420416
0.8010831243611338
0.8746217675877337
0.9706741484943432
1.1000618457618492
1.2267734564906936
0.2203069282831775
0.2482707300656365
0.2919202940296859
0.3271880855997212
0.3602723968427507
0.3934652100391305
0.4253397562135886
0.4596718150280454
0.4997751805586273
0.5447088777422536
0.5974491637112888
0.655257508865771
0.7171842872834212
0.7847064653086238
0.8592612287226767
0.9520978122542034
1.0818487152802592
1.2450670790461362
1.3432920303225016
0.2201237693717116
0.2488599968771543
0.2936544143662317
0.329269810643185
0.362555464614447
0.397017259879636
0.4305906629912071
0.4668980570950974
0.5103089839014872
0.5610301407636026
0.6211523204540433
0.6861019066449029
0.7563798052265921
0.8326585162625196
0.9243288256435488
1.0430081835044798
1.209293424381374
1.3946605041789737
1.4362687168155306
0.2204412214855702
0.2494729870865561
0.2937715215389407
0.3292869574677066
0.3637272554493929
0.3996461568817119
0.4350420527651257
0.4732793731166659
0.5210064989165984
0.5773456891330646
0.6445399004994999
0.719323332356364
0.7966376121608737
0.8802425674978358
0.9925361995774054
1.1475782787646231
1.350751576269612
1.535480604190493
1.4554563056377412
0.2209640201067759
0.2500592568009294
0.2941311653246752
0.3294321361251229
0.364880974427895
0.4026499684866795
0.4399398968564266
0.479980660408398
0.5327421521299881
0.5948488567305034
0.6676976993485781
0.7486559527472154
0.833280204702014
0.9327460481744678
1.0658984155370623
1.2603963975691233
1.4958848605471382
1.6554828589094188
1.3708851895582608
0.2214277431959705
0.2509211107269087
0.294890052865868
0.3296469048529384
0.3654546194035941
0.4046804179316868
0.4445508846555699
0.4879195377847451
0.5453073350313841
0.6140823904985604
0.6920979498518129
0.7772876916334487
0.8701308130186864
0.9870502881313168
1.151738682227347
1.3838233532913806
1.638411884318114
1.703495776928151
1.266470061062208
0.2214036241694947
0.2508191881930863
0.2953294410892433
0.3294825223997693
0.3658661537788027
0.4061437884064514
0.4473490023115876
0.4944876548461613
0.5558787705415721
0.6297127773765986
0.7138475260641637
0.8086403354595151
0.9129132815391952
1.0463475646846745
1.24434318972364
1.5121665385995284
1.7700443707037352
1.692022167869898
1.1644616872922684
0.2212233120512981
0.2500857457816964
0.2943634521843427
0.3287789214794527
0.3661311968741934
0.4070791143669403
0.4496791902064558
0.5003513093491733
0.564986594310181
0.643078578799954
0.7347041413433701
0.8390713809473099
0.9551258053461926
1.1149168916549026
1.3410958738139094
1.6346937794756244
1.869628332305048
1.6646471619569616
1.0464667816532582
0.2213854046075755
0.2499063491173372
0.2930776180919576
0.3278290530196927
0.3661851700774313
0.407741541816331
0.4527396778931987
0.5065963549790666
0.5745162247277852
0.6587801277498964
0.7561585833934732
0.8670234700415159
0.9962177112456954
1.1805844330996829
1.435746794690954
1.751200995344958
1.906068752222942
1.5893103841049991
0.9559355687817116
0.2211757010101057
0.2493500942500734
0.2922789200707749
0.3275925863656746
0.366037437007803
0.4085888261604447
0.4567824877315639
0.5138988104079795
0.585126029550476
0.6745878806319985
0.776634716514147
0.8928614265892085
1.036069963852178
1.2394545468792053
1.5273594507720505
1.8531428750332184
1.9198422457187985
1.5014523011554786
0.8793404029146037
0.2210175140585047
0.2481764054762049
0.29110921729656
0.3277056657712758
0.3657241582993605
0.4093711362277601
0.4602613267422535
0.5195882658596456
0.594343991586754
0.6900141942673702
0.7981814436457954
0.9178005824931644
1.0731048161158745
1.2989728356000012
1.6265552164192334
1.9509354447370684
1.955015804241348
1.4429604794357438
0.813048963674045
0.2209459683423727
0.2469737017281071
0.2889987936653899
0.3268306721116538
0.3653057201401665
0.4098032557863337
0.4621988306253836
0.5235934871071876
0.6023090421131538
0.7030051952324361
0.8160378427583704
0.94457852280711
1.120725105896707
1.3637945467451182
1.7155798350337816
2.02557493945107
1.9605243937478023
1.3887827644480926
0.7701838164994812
0.2204081726435107
0.2455311244340619
0.2872227989872589
0.3261117799241984
0.3654355376660909
0.4107991987248872
0.4640755337423154
0.5284118012295355
0.6111980308685823
0.7128856931066849
0.8290990683677846
0.9714757631169564
1.1634265692577928
1.4262816591434808
1.7916185424849984
2.025387781030236
1.8894904065356428
1.332732143292428
0.7437799870462931
0.2190171947575354
0.2436487940495166
0.2860687143740988
0.3257180479949652
0.3660277360889271
0.4128316092592843
0.4668784038951393
0.5341639353963501
0.6203696211744626
0.723601429476185
0.8438498858038832
0.9969572210184138
1.1945140239876355
1.481491329736965
1.8598750739555137
2.0137936089339985
1.814197361740952
1.2824334661510486
0.7247261627791161
0.2173485411146826
0.2419315102134518
0.284865363346252
0.3250324980240197
0.3664759951862247
0.4141933974635906
0.469907181683504
0.5402525429405157
0.6287447337323758
0.734578757702673
0.8589432922704598
1.01944818445436
1.226808136898697
1.5460048790016936
1.9232314083360795
2.0376763095824497
1.7949126052184614
1.2402272118584414
0.7020794691642013
0.2161026022091641
0.2404964163973861
0.2839784760839977
0.324648340276402
0.366399761081553
0.4135843595595642
0.4709522876262815
0.544754211637703
0.6356748090226505
0.7451210551122687
0.8738222270458348
1.0402588037630025
1.2555000181512403
1.599732048769798
1.9833578622324135
2.07293916507564
1.7956069184087702
1.2098617824017048
0.6770190278121794
0.2153721170940191
0.2395755683715941
0.2829728163244832
0.3235773725423421
0.3658015444491126
0.4131205436346054
0.470776509759939
0.5471671193263934
0.6410647591747981
0.755693509798131
0.890394442556008
1.060498980266435
1.28099997990305
1.6382244039668632
2.0354610533348487
2.1091789805271213
1.8000119855324337
1.1911820688038663
0.6611559616119883
0.2149921024918377
0.2392568438869165
0.281847552301063
0.321903614020577
0.3650768053907223
0.4135815005027033
0.4714092084603568
0.5487038740158242
0.645553874044971
0.7639425253379765
0.9031816820908308
1.077522704699147
1.30778800738228
1.677313591572788
2.0736072439500286
2.12798105616025
1.797136403547845
1.1761995563499992
0.6505276433278623
0.2142662157836377
0.2384206675718199
0.2807831183934022
0.3206313855959163
0.3645282912033277
0.4138675059668631
0.4719220846914616
0.5502483596233669
0.6501805269069564
0.7697667624239238
0.9122749421691704
1.0923550763340073
1.3323443473859944
1.7063919191440466
2.102550007059039
2.1444984599989385
1.7882243956441155
1.1582096179735684
0.6385012853429838
0.2129454376544559
0.2371061676829802
0.2796196451986572
0.3193928484843329
0.3643611751600435
0.4149569938768048
0.473877837768716
0.5527327432913512
0.6546102648133298
0.7755070905027693
0.9208505615853486
1.1067320886291945
1.3541680167275283
1.732670621963332
2.126820656597412
2.152893698979712
1.7863588146067897
1.1519883643436757
0.6284346537635012
0.2119788158213082
0.2362204696684081
0.2781973457156975
0.3182495988627629
0.3637442820382237
0.4148248875742965
0.4760030454545007
0.5555773273190369
0.6591861134398416
0.7806297640556914
0.9284725474263156
1.1198410032544552
1.37943488165893
1.7614278079675172
2.13771695001892
2.153314121326768
1.7788032482937128
1.1476240422578097
0.6224321674885918
0.2115188931621107
0.2352584886747289
0.2767630388358313
0.3174914077102015
0.3632260644807397
0.4137691009049942
0.4758959508961082
0.5565159892843212
0.6628296316320607
0.7848006043600504
0.934221376281012
1.129921283138405
1.404237096110049
1.793601681903342
2.142282189426856
2.145273639114895
1.7614271710932707
1.1349563861070335
0.6193632422557663
0.210775132994228
0.2340076400113476
0.2756667391172432
0.3167261921525605
0.3629342493429666
0.4137009708421095
0.4753261445166576
0.5559858305488735
0.66382034278924
0.7865611450649621
0.93730742916474
1.1364584963731803
1.418278719433698
1.8181265989821584
2.149056151376516
2.130639663825033
1.7495894234260387
1.1276882405800832
0.618235122244572
0.2098979331697949
0.2327948185001621
0.2748085593520634
0.3160343000406831
0.3623828403029405
0.4138142404725645
0.4753842422132815
0.5562821170230766
0.6655295391664183
0.790306230928622
0.9411284359612192
1.1441901499763416
1.4302044699321452
1.8308935100260464
2.1477808267543432
2.1116231192748054
1.7340226865922976
1.119027758701932
0.6176931146234124
0.2092090878809835
0.2321800612726413
0.2743838041434573
0.3156214124667574
0.3614797181716153
0.4136955908827427
0.4761886722195789
0.557490749242814
0.6681739217120017
0.7968431445905091
0.947447841375628
1.152068216210849
1.4404218367237616
1.835512291611063
2.1452114956735344
2.101320659542337
1.7171421983500192
1.10536594612591
0.6145652588728115
0.2086610466216474
0.2319267133696278
0.2737029427794862
0.3147914128877088
0.3610653362673705
0.4140680854951551
0.4770902114097173
0.5576800597316739
0.6675916090313369
0.7996525931507921
0.952341474305578
1.1556139126010514
1.4416339532351865
1.842253974301663
2.1558049594274284
2.099114681162348
1.7031948866994973
1.093382508840853
0.6076689689536635
0.2084074557327578
0.2310226643382785
0.2721106499470718
0.3131240605644632
0.3606617975678311
0.4144142963706932
0.4771089054067162
0.5574371276624337
0.6682713797047181
0.8030789746715575
0.9567515939159422
1.160844186255395
1.445633092627026
1.84984476761768
2.1520320405042117
2.081442150755563
1.6891637939303634
1.0859412146243426
0.6040871351704916
0.1703701408461931
0.1718365376245549
0.1767461261216592
0.1855037965272071
0.1944362539477975
0.2023210131279242
0.2097463725663356
0.216829712006085
0.2235731428149455
0.2291960326660912
0.2344355355440313
0.2397488991148948
0.2450072469038063
0.2496275394488427
0.2532491509125981
0.2568191063136661
0.2608303226742235
0.2636596586048683
0.2650028512912282
0.1688214842983426
0.1706793606332237
0.1754896963028148
0.1842203755121945
0.1920822176783813
0.1994186064500465
0.2064457538082489
0.2131187137008615
0.2195470610981409
0.226175966309469
0.2328356984210359
0.2398749944233618
0.2462261292788189
0.2518946284950431
0.2571408484303467
0.2612050619659663
0.2650609640126408
0.2684885084090049
0.2712282547995816
0.1692941587779945
0.1714259494793553
0.1765107099244832
0.1863528991075055
0.1946516230432704
0.2027050681869882
0.2113610283806378
0.2201018096924439
0.2282444206046173
0.2367079836127296
0.2450061803313903
0.2529743650254873
0.2598292299410886
0.2654648531936933
0.2705014573846687
0.2743655524158272
0.2770469707021985
0.2790023940509695
0.2805324253877533
0.1720838348056763
0.1742589156326785
0.1805357316057914
0.191958743893283
0.2018703896763958
0.2120443340671418
0.2223376775234525
0.2325267175414736
0.2415637401197183
0.2498683006007676
0.257369730472523
0.2637204402370215
0.2692388718461134
0.273762397879531
0.2770062949528193
0.279384702732829
0.2811793966676881
0.2830060755838506
0.2851411656970187
0.1761552218210083
0.179326239009789
0.1874273944621388
0.2011073615105498
0.2137304562275412
0.2258665943851897
0.2374205980608263
0.2476592106688313
0.2555783220274032
0.2621803787868412
0.2678010467063685
0.2722179281765262
0.2764170153705282
0.2806049879961211
0.2839196322143842
0.2869137102992027
0.2900025709220153
0.2932386209460458
0.2968930188756072
0.180856682989987
0.1871519599865139
0.1988123559980039
0.2148143974070863
0.2291465237788968
0.2414240562302552
0.2520533550420122
0.2606150876057387
0.2668297773836306
0.2716274525923687
0.2756282393228726
0.2797630255430863
0.2845952148278965
0.2895999559996692
0.2945445749328911
0.2995974432763595
0.3043996962838229
0.3096448080788812
0.3157020121194943
0.1896000077991161
0.1984561581807951
0.2130410303179404
0.2303630926022223
0.2440908952045063
0.254450538889049
0.2629269954423447
0.2692700552407948
0.2739316418724338
0.2779213529497828
0.2824696704776843
0.288826070919459
0.2961593886352571
0.3034572590064168
0.3109120647638336
0.3186193617879893
0.3261306407375431
0.334224444537937
0.3429261689934248
0.2011678416389758
0.2115897009500044
0.22802569384903
0.2443867650743726
0.2554568315213252
0.26332916301215
0.2702026751104331
0.2752996203278881
0.2794219695889788
0.2846857777917537
0.2922665441742259
0.3022309910055242
0.3127371207877036
0.3232437155366478
0.3337254289224708
0.3444128789340027
0.3551897743422198
0.3664905804592858
0.378206434140315
0.2146256198519767
0.2258381935660361
0.2413348452832757
0.2549691872185344
0.2630970760032311
0.2693159563081794
0.2751214842225052
0.280395624487565
0.2865275711513229
0.2948554816451063
0.3061933948663216
0.3199476978203563
0.3339581544565855
0.3478233166764566
0.3616265034932212
0.3755281293954453
0.3898356646537546
0.4046001110900086
0.4195778735687937
0.2271805784874128
0.2379462213855598
0.2514317671887413
0.2616148793069986
0.2672141718873766
0.2729057930165794
0.2790653634680962
0.2860104572631989
0.2953159989162703
0.3080715595782652
0.3235468778603565
0.3407292776542322
0.358498132119683
0.3760934533428339
0.3936383897358202
0.4111812676955478
0.4297918239349977
0.4484815305894195
0.4667245116429998
0.2379726455332805
0.2473891885881037
0.2575710188971348
0.2652158579221677
0.2704176707437344
0.2761471166454027
0.2828207288990028
0.2925332932607905
0.3058494989282652
0.3227723943523661
0.3424975944992661
0.3643048203652593
0.3862101146755757
0.4078370367822851
0.42972727879738
0.4514103997256837
0.4740021962306961
0.4970449825532078
0.5199733536478655
0.2476538530000153
0.2540523425879498
0.2604966445810486
0.2665287960455612
0.2717628701902204
0.2782427360073704
0.2873142704884625
0.3011716676487924
0.3189770703548724
0.3399754064007887
0.364790895223969
0.3910450786106574
0.4163063581116922
0.4420704364548978
0.4685990467085905
0.4952937606155619
0.5229491409585024
0.5514546803727578
0.5807322597606026
0.2544080672713498
0.2573513287974366
0.2616165193179342
0.2664128295563133
0.2720846542326123
0.2806942910893124
0.2932164229793755
0.310965765462984
0.3338100219017046
0.3595406944375092
0.3884987314179147
0.4194329661620721
0.4488446319162856
0.4787926499997239
0.5104821970238556
0.5431225026967904
0.5774499930543293
0.613299344905816
0.6505068130943974
0.2585194020018282
0.258272157520954
0.2611898955023145
0.2659362415713274
0.2731041175429003
0.2842848029878116
0.3007383991204817
0.3230613192800637
0.3504779378992172
0.380377633426146
0.4130269928080866
0.4481478558906599
0.4831286075858343
0.5178317862424784
0.5556719301477089
0.5966304684571649
0.6380277516756413
0.6814962074193475
0.7287709435073604
0.2607031882255612
0.2576606432143332
0.2594484782693925
0.2649029453460014
0.2741614996714777
0.2885023167242368
0.3094704610157578
0.3359124823902652
0.3668400863707514
0.4014171094455175
0.438754041530811
0.4773870233398577
0.5180758062486821
0.5602754707397364
0.6043769696824577
0.6533089601096598
0.7039425921401311
0.7584339970754241
0.8266435123017704
0.2612283321921168
0.2561842697263112
0.2575377399455944
0.2638536692223098
0.2759595204044574
0.2942462013066462
0.3189830039438263
0.3486939884812147
0.3828441541023409
0.4225359472563737
0.4641478992379845
0.5080654220539436
0.5554218015930321
0.6054366950876579
0.6566639158330534
0.7115979121008805
0.7744200763575666
0.8509130597253658
0.9509153054223284
0.259158858279145
0.2531176612774349
0.2558522310541588
0.2634372725746209
0.278636141553142
0.3003412433439063
0.3285175722272556
0.3624933713544764
0.4004355093607329
0.4435259642286948
0.4893193139531577
0.5401570204160884
0.5939128078415582
0.6503890917084727
0.71046325617594
0.7756742446610524
0.8550806041773983
0.9628431489882832
1.0896902126184909
0.2549783348246487
0.2488131573467772
0.2541037119811701
0.2636338092984943
0.2814691163278276
0.3069071017730237
0.3388363300718479
0.3762211567833675
0.4185263556522908
0.4642964220540345
0.5153442536181557
0.5734527163397699
0.6339066538246024
0.6980953618235283
0.7667707092366102
0.8473889691787108
0.9528107752232502
1.0991427381945662
1.227880669950398
0.2501269515740403
0.244899780519826
0.2519587822273575
0.2646002789242733
0.2849825367527165
0.3132406389886402
0.3486783736821119
0.3893445969750082
0.4354350337822008
0.4850576548065489
0.5416991946802477
0.6059899518501847
0.6748318047759886
0.7470803313082307
0.8257558516868744
0.9286567420025278
1.0693123270735725
1.2439422273698646
1.3281310386871197
0.2456950436960111
0.2419170900983859
0.2504585682912557
0.2659621897926549
0.2891941523582819
0.3198845159881452
0.3572703748638914
0.4012388887362391
0.4512065323734569
0.505756039627252
0.569509263217396
0.6405545372170702
0.7170029029809468
0.7984961457833097
0.8909606954854064
1.0193097221462732
1.201763424145918
1.3785531634432486
1.385967293583413
0.241861249884199
0.238847330374861
0.2496776286692771
0.2678824140624335
0.2937976107010991
0.3269179810721058
0.3671978525331938
0.4138033095687823
0.4658697216567
0.5251645974300075
0.5964431403674109
0.6762327137384796
0.759432902052726
0.8529914168755119
0.9664896216694172
1.124522749016133
1.339655221508924
1.5033214324370234
1.394097830829277
0.237626581877766
0.2355027715740873
0.2497438635516239
0.2704376280591758
0.2984034351563581
0.3333959261505829
0.3770662126897877
0.4267911407674016
0.4815323564561112
0.5451305609106871
0.6219859722090871
0.7093644694666257
0.8008312035666498
0.9071061963296496
1.0420367298306934
1.2416433380097864
1.4887438997953524
1.6257000814108866
1.3070081304097114
0.2341389067933088
0.2331117324179717
0.2501026434741522
0.27279717435319
0.302559567056166
0.3401836667390274
0.3863029561887988
0.4382416776910921
0.4979882451205692
0.5674453773284305
0.6496317762020171
0.744564152037524
0.8469785253491702
0.966167508510381
1.1310234251864215
1.3743052481767437
1.6311914565897514
1.6526483412310649
1.1888494443349638
0.2302266063715044
0.2309282214154785
0.2499691863254432
0.2748423316650188
0.3074831330610024
0.3473111991041614
0.3948335813623209
0.4481108069716925
0.5116312442744692
0.588394571073453
0.6765740388596702
0.7789336869285173
0.8930963573175884
1.0288419355953151
1.2289331693491103
1.5078657669427156
1.7439024436300166
1.6134133533912518
1.0950516938769326
0.2254448326098198
0.2283756775047575
0.2504264440682381
0.2775698066641428
0.3125759045001768
0.3535205253333087
0.4015993061742601
0.4575580867531901
0.5245340803232965
0.607595424926187
0.7041030797903723
0.8134644636307422
0.9376579774248428
1.0989371835563893
1.330647716742828
1.6224193766468682
1.820314471516865
1.594457149998579
1.0033091445997542
0.2217699025574842
0.2263894058815148
0.2515188141507983
0.2808282005693194
0.316548769301003
0.3590966598506304
0.4088929494500643
0.4675887664943421
0.5388376644814792
0.6267424676443101
0.7295222030658759
0.8468521025451917
0.9789503595962812
1.164324187714348
1.4287660321265097
1.7239695939847848
1.829838382432016
1.5137204590357445
0.9153882681072684
0.2188432860564892
0.2250362033596054
0.2524122423522322
0.2836624456402019
0.3201624563888505
0.3644006268421066
0.4172898296476757
0.4776797891692215
0.5520071750901759
0.643316682656771
0.7528962678676168
0.8801115488532629
1.0227425425042178
1.2244200428026553
1.5156264895768956
1.818954960419592
1.844850302266689
1.4339558343738974
0.8385773060118993
0.216404596985643
0.224273781610141
0.2533206687861281
0.286211199003927
0.3241097435258318
0.369667911192358
0.4239012554434841
0.4856114158554233
0.5630151337647371
0.6589331397864193
0.7766619913139772
0.910593833522246
1.0690102238311672
1.292985781806524
1.6115141496858183
1.9217673542810052
1.89079109285234
1.395822959114379
0.7888050775555855
0.2148435369721172
0.2242093751355119
0.2549561307579248
0.2883525518451276
0.3275059013926926
0.3741519790505105
0.4289110921789418
0.4935392686905491
0.5743421053993382
0.6756234564496273
0.7968165480123867
0.9363802562996728
1.1135067112084105
1.3574574477359806
1.6919121054560151
1.9789179181103047
1.891744538707193
1.3538524356967183
0.7558793077573913
0.2132107897447586
0.2239439141510298
0.2561418302514659
0.2900224434564736
0.3300780017535045
0.377858358370607
0.4341969714597407
0.5026482591223034
0.5850556587149971
0.6895027523885228
0.8162394039120977
0.9666649004938946
1.160489962145138
1.4123958649609565
1.7577901807045773
1.983893186752605
1.8223980517560117
1.2871892952901176
0.7220706545672435
0.2114002747858862
0.2237515865367029
0.2568692999779022
0.2915611569745149
0.3323669204265154
0.38113389101384
0.4389297840774626
0.511247691364511
0.5955231267618287
0.7016991178527826
0.834083631581338
0.9925987435886726
1.1931450807696329
1.4614621467598634
1.83088536128028
1.9927129521589309
1.75460806830115
1.2231713378853133
0.6918946082074645
0.2095594220846926
0.2235377982048997
0.2581280036229456
0.2934235230931099
0.3352856921703127
0.3848051647357409
0.4437451628948586
0.5185294816154515
0.6066158326335395
0.7166333568077847
0.8519185608283996
1.0147761362753531
1.220746204922606
1.5147510472550785
1.9003452427543863
2.022881898222465
1.7405190982538832
1.184181441472088
0.6662222708397808
0.2078829820062987
0.2235476783895852
0.2600352789094753
0.2954605942432487
0.3384477709279481
0.3888103445770116
0.4486258190969331
0.5237286688809399
0.6147985067914826
0.730263791537892
0.8703456298541725
1.0388050249229757
1.2543456735644198
1.5707834448655429
1.9581114943307791
2.061358834198985
1.7445708097229142
1.157061538658317
0.6540627940566659
0.2070903015603954
0.2236395142353823
0.2613772976208955
0.2974301374891996
0.3409984469806748
0.3922241775948417
0.4531782348702859
0.5284508236230931
0.6215371371088678
0.7394747589726154
0.8815880569957425
1.057989229946918
1.2815839797681543
1.6168136893006402
1.9995718265012477
2.0829913950903927
1.750703754875888
1.1378935809777138
0.6408897886582585
0.2066126437334617
0.2237665215764384
0.2624689570293514
0.2998115408071051
0.3441023673491444
0.3960729043928162
0.457052510384326
0.5329630246206896
0.6304258873347256
0.7503937422079114
0.8933892111640315
1.076218588524994
1.3015097997006595
1.6491214282306057
2.03306675624496
2.104516081158278
1.7572889144326445
1.1221609464420428
0.6253393829723582
0.2064184774234843
0.2242649283002865
0.2640502572375149
0.3024322269521304
0.3470497755144013
0.3993462435289723
0.4603105483363295
0.5376629840676538
0.6386456034384983
0.7605093794516449
0.9076996135448484
1.0919450923470793
1.3169743051443783
1.6800838106317424
2.0747692520973136
2.127788491436242
1.7504847341872292
1.1117426769899874
0.6200854711692266
0.2065566050861363
0.2247619337408585
0.2653962773327654
0.3041375135512664
0.34820735642006
0.4015798557709042
0.4632822313469671
0.5419400572140718
0.6448546624814969
0.7671988939886726
0.9158222959004272
1.1043136585598183
1.338329225669576
1.7110957540938152
2.105098682102812
2.141259817465105
1.7468942240405083
1.1097934978463442
0.6203297229719663
0.2066616619090971
0.2256168920804777
0.2662822356672885
0.3053646755640049
0.349494446609347