/*--------------------------------*- C++ -*----------------------------------*\
| =========                 |                                                 |
| \\      /  F ield         | OpenFOAM: The Open Source CFD Toolbox           |
|  \\    /   O peration     | Version:  2112                                  |
|   \\  /    A nd           | Website:  www.openfoam.com                      |
|    \\/     M anipulation  |                                                 |
\*---------------------------------------------------------------------------*/
FoamFile
{
    version     2.0;
    format      ascii;
    arch        "LSB;label=32;scalar=64";
    class       volScalarField;
    location    "0";
    object      k_LES;
}
// * * * * * * * * * * * * * * * * * * * * * * * * * * * * * * * * * * * * * // 
 
dimensions      [0 2 -2 0 0 0 0];
 
internalField   nonuniform List<scalar> 
13597
(
0.2220305796716302
0.2211067724774842
0.2219707989454912
0.2261335701228604
0.2302532586580284
0.2320573399203086
0.2336545362330689
0.2352800747341178
0.2361073322174223
0.2366845379448537
0.2359413996822793
0.2347593612168416
0.2344890339989663
0.2332671539416184
0.2311628979371085
0.2301007891457077
0.2301964912501592
0.2299394598339136
0.2302531385733327
0.2020354079989914
0.199783192678995
0.2002134853922611
0.2052181793014934
0.2101748120609137
0.2147090650413375
0.2194003064878708
0.2245794686088307
0.2291308576127744
0.2332205138110898
0.2361864961402691
0.2384519464401717
0.240974038990582
0.2432357664990225
0.2448676113326071
0.2466519867634933
0.2490237678544396
0.2517714180930625
0.2550842725057558
0.187659820725348
0.1857872934097343
0.1889656358122948
0.1977895820102372
0.2059745113974795
0.2143287856194791
0.2219021997662775
0.2282982698055248
0.2333760502239569
0.2379922153936124
0.2413690409986998
0.244111151761822
0.2469253049375149
0.2498633803987741
0.253369437012829
0.256793066985219
0.260398882165454
0.2647775939998121
0.2697789749275928
0.1799586039654534
0.1814311638383571
0.1894713352085951
0.202422681667868
0.2127782208509969
0.2217092047787575
0.2294589753064066
0.2356205777046663
0.2400518024887954
0.2436655016012057
0.2466632498260229
0.2497713811514769
0.2541456699045031
0.2600288544727826
0.2663383175188655
0.2722339936709202
0.2778314102869914
0.2841646303521365
0.2909867247014017
0.1796447822732353
0.1843631558060252
0.1959429622776757
0.2107527742959634
0.2210214197870114
0.229328814705512
0.2358557202410189
0.2405589615072643
0.2444863874719663
0.2485792952862681
0.2537922950735783
0.2602764246705171
0.2683624207347957
0.2775217342479169
0.2855600358389056
0.2928697509022404
0.2994538832886335
0.3058259348203762
0.3119201416863607
0.1825346754950874
0.1893217786197774
0.2024711850314587
0.2170741747895458
0.226291790034679
0.2333484511054027
0.2389154665044297
0.2434722773613594
0.2486058082183689
0.2554123058582125
0.2637795785645629
0.273138257793755
0.2832618478997459
0.2925550836484865
0.2998574663547445
0.3057366598574265
0.3108056478710362
0.3148051241326397
0.3180139256156138
0.1858814868756132
0.1940283260699028
0.2077881022428052
0.220623877804337
0.2287025608925073
0.235006369234363
0.2405390334614986
0.2463426701490151
0.2528807137360312
0.2613710421200138
0.2711591728645005
0.2815405253038214
0.2915442597293862
0.2996740620842512
0.3057397532161551
0.3098250405014866
0.3126206086066558
0.3146158120824283
0.3157124632226762
0.1887833195578218
0.197093338434554
0.2103137494065446
0.2213631796422238
0.2284694014644218
0.2352497652201255
0.2411562239869062
0.2478022784406258
0.2559553999426459
0.2650265422530663
0.2754403229450458
0.2864015714093569
0.2953116120917913
0.3017415740761532
0.3061146970359055
0.3089535366012256
0.3107555336074363
0.3122282271925807
0.3130635148958288
0.1896339935901385
0.1972374535761298
0.2096795486862622
0.2199456830100829
0.2270236696166682
0.2341934116191431
0.2408097082452988
0.2486300644789159
0.2582976700331905
0.2677137235114342
0.2780025539124067
0.2883564652600699
0.2959674497899389
0.3015680098801067
0.3053317910397705
0.3081622147716318
0.3106219348121817
0.3131962206801317
0.3160401920601705
0.19018559143798
0.1971509362940909
0.2084502907063505
0.2183370262046994
0.2261458804271116
0.2334698143215995
0.2405581666086272
0.2493666946812726
0.2593263411330358
0.2689196677022365
0.2790995931678772
0.2886600022716394
0.296007471528328
0.3019388785393729
0.3065695328352762
0.3109569603213233
0.3156374367207619
0.3208111548931783
0.3269689378630118
0.1901213646493961
0.1967442123466791
0.2077825282686514
0.2167528988725179
0.2243967890978034
0.2318823269292127
0.2395223103863979
0.249106695437952
0.2594894149157171
0.269620047680442
0.2799870188817867
0.2897793528209141
0.2977255550722991
0.3048274905210235
0.3117201990106202
0.3188373251603779
0.3267679502677697
0.3357237198056753
0.3464782857467026
0.1895634677593657
0.196320913450488
0.2074573159392832
0.2156760803249981
0.2230768008928477
0.2303878199612693
0.2389255956694009
0.2490763197774612
0.2595591665581274
0.2704291216464264
0.2815370006548748
0.2923048286146487
0.3019915989316826
0.3115908016896886
0.3215784465186414
0.332068510369005
0.3438076938428886
0.3577511218799367
0.3744603870080271
0.1895653913736038
0.196308994905713
0.2069349182090621
0.2151200420993732
0.2228168406745969
0.230077646069669
0.2386664433556682
0.2489958026569936
0.2598880226596752
0.2713116449538062
0.2841815613868524
0.2971166925724215
0.3093295198773414
0.3223106163669763
0.3357022266341982
0.3501412869965618
0.3673542600495099
0.3876553669333487
0.4098239935487013
0.1905019230355661
0.1968397727796015
0.2068501622709117
0.2147802169108763
0.2219522562812533
0.2296558870655834
0.2384854808298421
0.2484893827210429
0.2603292952589881
0.2737073678093606
0.2885430394643639
0.3041321725893016
0.3196293627793448
0.3359367750854556
0.3535463253656238
0.3736292985631405
0.3974377426143999
0.423611240014874
0.4521365633961315
0.192309705989007
0.1981851581431137
0.2078606965942023
0.2143855382298077
0.2207982480743844
0.2286802223636128
0.2379003174905602
0.2486778776081012
0.2619555153522491
0.2773113759042864
0.2945176223495368
0.3130380445087846
0.3327200268072438
0.3531159832045054
0.3757623461866292
0.4022749945976341
0.4322623891032087
0.4654139568784974
0.5086584713289604
0.1946733510379344
0.1992950291662392
0.2079088024328337
0.2138643543254422
0.2200383272208146
0.2275830885894648
0.2373861902119642
0.2497378127521468
0.2650627515147721
0.2821627526010997
0.3023150123031711
0.3248157927262594
0.3484246529586389
0.3734376052510645
0.401690152535838
0.4340747114713246
0.47122240569953
0.5183620846851541
0.5873923790474015
0.1967261122668392
0.2002592529051413
0.2077407087854637
0.2134149807632847
0.2195711658191245
0.2275592428740739
0.2381240616493741
0.2516623322006703
0.2688328321215786
0.2883564869902547
0.3107966580031001
0.3374010326902631
0.3659021203009373
0.3960558955636347
0.4300225560560964
0.4694970910135328
0.5184448177664708
0.5881693966072238
0.6809039608125694
0.1993280858990481
0.2017100409020136
0.208115619148907
0.2133751176914938
0.2193654229642175
0.2279530922758347
0.2390627849643685
0.253785279857369
0.273076445976089
0.2949679779982312
0.3206863021723034
0.3515796938057025
0.385027583398617
0.4210361132744904
0.4613941358558211
0.5094903909555744
0.5771087809013288
0.67295377501415
0.7636795992799501
0.2029471958036996
0.2038540911268239
0.2088127149890745
0.2137646214417224
0.2195834713979712
0.2286332933459926
0.2404309413113053
0.2561728480071525
0.2775172258871767
0.3024756155839912
0.3328652060655417
0.3675252879702571
0.40585278507124
0.4484255010914787
0.4956855342499451
0.5575210138256897
0.6493641541831403
0.7666111172964939
0.8266592867506494
0.2068873392104982
0.2065153483136602
0.2099605952608529
0.2142344190359549
0.2199097824868589
0.2295439963341292
0.2426515178268058
0.2595534449096417
0.2823581305383497
0.3104194982724186
0.3455713739639531
0.3849349965016
0.4283406251994475
0.4764448997890227
0.5351573213642319
0.6149473193071028
0.7320551819131462
0.8577530825447399
0.8675584180535946
0.2109668006946018
0.2092118415878105
0.2109881027457304
0.2144662517390407
0.2202227660665547
0.2304159995232134
0.2447874694952189
0.2628422216519246
0.2879868995704821
0.3192448521176178
0.3586773663520925
0.404265176159203
0.4521913708916725
0.5048792051834464
0.5772244133098886
0.6814484656559094
0.8219689366945605
0.9390577254493084
0.8649404452485054
0.215181805874567
0.2113921862404717
0.2119471125911577
0.2147599621261979
0.2207356872457598
0.2319817353604699
0.2473660635609638
0.2665063363620326
0.2946379382921811
0.3295073467580174
0.3719676257567286
0.4214060605433091
0.4741153262254772
0.536435782708118
0.6228229079583169
0.7539637445168139
0.9114364843027042
1.004014239952844
0.8052639359750081
0.2190455016422802
0.2134714001515379
0.2128484417990105
0.2150837083777298
0.2213951373192902
0.2334368352259954
0.250009173863484
0.2713112312905545
0.3021799177647142
0.3408575641420516
0.3866433075102166
0.4384473934256921
0.4956904150763426
0.5694643633577434
0.6775888737981951
0.8331895303415489
0.9967349948345848
1.023897594006577
0.7379517970573476
0.2226033246403713
0.215732148589432
0.2138426227912895
0.2156700826620628
0.2222953828009109
0.2347211600972881
0.2521358893020284
0.275686363088678
0.3086600201300361
0.3500137727169065
0.399854184433271
0.457376347832476
0.5210361501488204
0.6061521885979463
0.7371497455769794
0.9140283471697728
1.074368672629429
1.0125077673400007
0.6764180252546906
0.2263582652312915
0.2179715114880065
0.2149395008824975
0.2167318428821473
0.2236471112007017
0.2366159908991761
0.2547095990734461
0.2797675108225697
0.3139578790891729
0.357897978417936
0.412321088263672
0.4756093359578039
0.5469985219271541
0.6497661388512862
0.7991708903898187
0.9888455702259866
1.1307789018781258
0.9937720804816298
0.6075915879312401
0.2298225729848773
0.2202097524213115
0.2163183068483115
0.2179703287658917
0.2252149324139994
0.2384363571142165
0.257790725816041
0.2842880718333987
0.3197230199449606
0.3675606359466573
0.425750704536444
0.4930371630043527
0.5731077999720521
0.6920868593678725
0.8589783951200998
1.0591734621751117
1.150442116361749
0.9478586825074704
0.5562066979784855
0.2323662819670198
0.2220076967738473
0.2176730192500649
0.2193520838243977
0.2266727669767746
0.2400713838580296
0.2607761240936154
0.2888829980387832
0.3263182542424307
0.3774857185376198
0.4386383169653526
0.5094618400821939
0.5988169023446818
0.7300256318442142
0.916529992733226
1.1214042998862646
1.1582802190661718
0.8956619469004133
0.5130021464986901
0.2345749456603859
0.2233283089779171
0.2187903227838925
0.2209842273933678
0.2281527823336616
0.2419097493253788
0.2631702840799583
0.2927986036518507
0.3329192095375355
0.3878046503313058
0.4524963644124707
0.5252403323147429
0.622971743823301
0.7686049102625879
0.9785098479014088
1.1810285277309924
1.1784900478456903
0.8611310700592023
0.4763140392611043
0.2368105203611618
0.2249223050539088
0.2198893927633722
0.2222911624474759
0.229208869558138
0.2433192310931599
0.2652495225067512
0.2962071464285736
0.3392810393181311
0.3974858188432481
0.4646405980534793
0.5423931867232042
0.6535244141305173
0.8098009968665799
1.03337810782311
1.2260708279740242
1.1809058767184009
0.8298634536648744
0.4543774171952479
0.2390747926863715
0.2266159217699167
0.221077941217154
0.2233022603068234
0.2303179725767177
0.245188978406897
0.2675571899794152
0.2995269828878095
0.3454431769468069
0.404887161479091
0.4737446057605659
0.559820792385674
0.6809637374755129
0.8488736937957112
1.0799815324389563
1.2262951387205685
1.1399097679692136
0.7994889793988541
0.4421910223591372
0.2413228031562203
0.2284057863166971
0.2224300877581645
0.224350613099142
0.2317575494083405
0.2476730464268979
0.270287731500995
0.3037067869031863
0.3516725364461052
0.4120133068614826
0.4837774657570188
0.5766703468051843
0.7009573068414291
0.8835315728424997
1.1226217838474166
1.2210943351847945
1.097926701850463
0.7724179985812665
0.433512134394763
0.2436635376989551
0.2304190719665545
0.2240103802321157
0.2258433852839359
0.2336763848207499
0.2498992017165823
0.2732786747818662
0.3085351848844286
0.3579744512457553
0.4197789510034866
0.4943349390025712
0.5921647875181215
0.7222351747070828
0.9246694851305198
1.1628197415131325
1.2369273830625682
1.0887134579872644
0.7493276715371566
0.4218495733906093
0.2454610554450373
0.2320224257041535
0.225432280398996
0.2275284587192336
0.2356767806810082
0.2517133805077736
0.2756708615952374
0.3123514948690786
0.3635807121126682
0.4278383663025902
0.5048402610391917
0.6068588572803377
0.7420596579898848
0.959218124837686
1.2010396023190115
1.2589964801319349
1.0907586089885866
0.7337508136311333
0.4084245368361581
0.2468694019178558
0.233244613128101
0.2268798542541561
0.2289162015883946
0.2373485935832781
0.2534404073381835
0.2776279921791497
0.3154202495280979
0.3680154963527363
0.4357651391590835
0.5165253717953259
0.6211958380397467
0.7599905108169654
0.984609360735853
1.234805275895433
1.283226417629529
1.0957416156827142
0.7247350748334341
0.4011564475422436
0.2485679180463884
0.2345258498153524
0.2284358230908966
0.2301275746958461
0.2389682781590646
0.2550957713979365
0.2794073759592475
0.3180236215360363
0.37185153510246
0.4422475007089265
0.5259675442109072
0.6330939712565121
0.7784108879693261
1.0105341364401426
1.2591392004398376
1.296668747892469
1.096363909849875
0.717575121918481
0.3973330719127095
0.2499986738572135
0.2356884546832195
0.2296610160473103
0.2313699432330475
0.240334493061388
0.2568743287717081
0.2811959930610829
0.3201599197424216
0.3758040806169298
0.4472207313546588
0.5330309401865744
0.6435780866287664
0.7949895086117219
1.0298868803203425
1.2781807344739404
1.3086700603058636
1.093522108141493
0.709176961976465
0.3920432673646752
0.2513987490509474
0.2368826268587852
0.2311527886117557
0.2328491550280941
0.2416013554737424
0.2586963870316841
0.2836105735676466
0.3228880275767913
0.3798717635576356
0.4522687989791941
0.539992645783936
0.6542116671016139
0.8099652522477131
1.047675942938986
1.2951927155136342
1.3162741611346525
1.095776500664618
0.7079456482787843
0.3872402580948714
0.2527540830277078
0.2379781097527423
0.2323953267481967
0.2339949614420309
0.2426715406878875
0.2600619986784501
0.2860803169021363
0.3256555383774825
0.383789597165368
0.4569619167682813
0.5464911985398464
0.6639034034087433
0.8268659717660934
1.0668131397944771
1.3040319111299263
1.318745025775842
1.093144058235679
0.7070291782826523
0.3853116301729972
0.2536279109682303
0.2388770809768386
0.2330734643337026
0.2347642905335277
0.2437320160610078
0.261184673630043
0.2878260067735279
0.3278208492095827
0.3874110201836165
0.4609231368553222
0.5518518752735888
0.6718216394910571
0.8434866893831202
1.0883694837920552
1.3095037087857564
1.3160431587813448
1.0831715381339246
0.7004713112442832
0.3855014778691984
0.2547311739106923
0.2401489599344134
0.2340978615828777
0.2358378479992647
0.2450796115000972
0.2624674262419569
0.2891334815458569
0.3292511150485458
0.3897098997538631
0.4635899324419925
0.5552505783078411
0.6776251830283767
0.8537330396901901
1.1050054144762174
1.315986723763776
1.3095118639235928
1.0770342267767876
0.6971958930675364
0.3860963956834592
0.2561153102064742
0.2415278455028126
0.2352013704744069
0.2369381495933505
0.2463614644660587
0.2637211290026173
0.2900893698906177
0.3305390484753162
0.3919319322741546
0.4670863461736076
0.5590846374415644
0.6841253586131025
0.8626371138071952
1.114418743438525
1.317521652376226
1.3004793001558064
1.0691871501424854
0.6933158623867132
0.3867240429937638
0.2570784219273809
0.2423950943360399
0.2359251916177641
0.2378614016400886
0.2474052396111347
0.2647414236908804
0.2910975799465614
0.3322101936197643
0.3949148541095394
0.4723801161673107
0.5645783152686181
0.6906123368960052
0.8705225479045392
1.1192805476988068
1.3187914119812787
1.297319583232856
1.061032710812268
0.6867231757672875
0.3858762728213372
0.2580480897104968
0.2433896075538391
0.2367649427480869
0.2388747780551895
0.2484565003276982
0.2657835613417726
0.2923546787960835
0.3335270893708392
0.3964573726054101
0.4758094496212908
0.5691456008076621
0.6944919371225726
0.8725856414823664
1.1249111542819108
1.3275215232749973
1.2981439837187378
1.0544027480845284
0.6808841087064234
0.3824809540182803
0.2593529860253104
0.2446581690796654
0.2377719761852768
0.2399574588172607
0.2495165713159108
0.2667079011925478
0.2930476139282906
0.3342330001128508
0.3983805377950086
0.479553597673423
0.5734921577342267
0.6994940210616447
0.8765120291260848
1.1308881054243618
1.32658216907412
1.289345940953295
1.048189783565007
0.6775144046602782
0.3809166936310595
0.219752890003906
0.2203931506467417
0.2230258315692254
0.2280333474425249
0.2328350290464026
0.2362838192949567
0.2390212667850796
0.2412740746613269
0.2439763057298783
0.2464648133873351
0.2481280693255268
0.249977229158577
0.2504822682137769
0.2503847322910077
0.250292398983459
0.2488508915493623
0.2473722225019892
0.2456002398393645
0.2432275081494796
0.2176014315742426
0.2187112084568647
0.2214751096772706
0.2270665687748249
0.23148481012791
0.2348437945567969
0.2380709106881234
0.2407101904772913
0.2428896353954097
0.2447620592040748
0.2468210846293131
0.2490208710788046
0.2501360513977759
0.2501939477125501
0.2501557969784714
0.2490439103403048
0.2477936950625399
0.2467032521801864
0.2447110020327659
0.2139023507896587
0.2151698342674722
0.2174506285558398
0.2223107790527546
0.2257540623232482
0.2287687611955466
0.2311867565994755
0.2333831766450246
0.2357441581633933
0.2379649619620474
0.2405981186513297
0.243056937341589
0.2449102471402539
0.2458645708497585
0.2462942763127555
0.2465786059957862
0.2460599176477982
0.2451021635375254
0.2433073202604507
0.2124091827129024
0.2135408524024515
0.2153405059850891
0.2195564681382525
0.2219410338146122
0.2251031387806568
0.2287081277539338
0.2323622305874587
0.2362440725375818
0.2401729530214651
0.2449578408005253
0.2493132362201469
0.2529077553019129
0.2557282460384623
0.2571971531865868
0.2583080598053517
0.2586433102615324
0.2581142591894674
0.2568558659556115
0.213534416929219
0.2146046345405254
0.2168186111188395
0.2210512529686798
0.2240318385154439
0.2286906799428473
0.2352391410091822
0.241644000707089
0.2484150654464681
0.2558037824944575
0.2630443433879091
0.2686862844246565
0.2726491774275539
0.2753534743466941
0.2765413376975535
0.2770612970613752
0.276944168325127
0.2756322730324977
0.2730996120382494
0.2162629625372705
0.2174885228591121
0.2201498133379477
0.2261493203082135
0.2321582852756727
0.2397558046322445
0.248720783404002
0.258076833677638
0.2671739957517498
0.2756310219396951
0.2827072010004008
0.2875386264289503
0.2901761623404467
0.290719362357309
0.2901998499917596
0.2893718816256126
0.2877850955184839
0.2855407618457934
0.2826887789603491
0.2217531751463686
0.2224092129394393
0.2255384657561768
0.2345890298407337
0.2434597544103781
0.253746965187217
0.2646811033327839
0.2748391246211357
0.2839079542721912
0.2913935167364285
0.2964592659619872
0.2985926670409481
0.2990256563403846
0.29830601038275
0.2968914993712493
0.295767235448402
0.2945028362538302
0.2933858107051648
0.292493086063498
0.2276323407110404
0.2279779407481623
0.2333129044097811
0.2443096226864236
0.255048353420686
0.2669310267432068
0.2783260528227517
0.2874394528083054
0.2951745599694009
0.3005113721503958
0.3032052768681867
0.3038239173614371
0.3031808804002616
0.3026236613726624
0.3024971507496691
0.3031135294364916
0.3041000304590673
0.30571855122368
0.3080219821254581
0.233117287467261
0.2341115823263356
0.2412564895428107
0.2538452280596696
0.2658627777561639
0.2772484421214184
0.2875953353032108
0.2959789404746924
0.3019839213931123
0.3050730538015733
0.306175414405965
0.3068392518703633
0.3074463225016686
0.3086753303532525
0.3110188019458209
0.3143549946317481
0.3185675348252911
0.3237736361018807
0.3301607714422533
0.2370000501183805
0.2391708023468371
0.2488501743093026
0.2622067587093697
0.2741682971854919
0.284906826457279
0.2936919858515012
0.3005078041421002
0.3044854248493562
0.3068914223720476
0.3086487457494494
0.3106133705822809
0.3137750224315971
0.3179867658743835
0.3233882831154339
0.3301136825706853
0.3386225647558328
0.3485832401926743
0.3598931428668031
0.2399657798785705
0.2442980043038415
0.2556054623049475
0.2686884723701733
0.2796886985469106
0.2892848127336304
0.2963790353266307
0.3017255341022654
0.3055355759157755
0.3082693504502777
0.3114479730026299
0.3162740975889915
0.3225862032301432
0.3304735011203072
0.3401065341708364
0.3511081058300257
0.364242425292457
0.3793109894543934
0.3958917877804827
0.2433935235116318
0.2491626036747432
0.2607391888615463
0.2727397693578189
0.2827715957546487
0.2910362220601241
0.2969208617575234
0.3017430924461169
0.3061617151076212
0.3104099144803368
0.3163767205920258
0.3246169960610939
0.3343388145302133
0.3462813491270544
0.360595962824067
0.3763329300407554
0.3943469550150989
0.4147443207541422
0.4372137318516133
0.2461961295061766
0.2524931838015054
0.2648244320264045
0.2754572917198098
0.2845522328840099
0.2919019883241576
0.2970478753231012
0.3016437872301112
0.3066648472087179
0.3136059563922806
0.3230991201771119
0.335291873575283
0.3491696443139304
0.3650233331022035
0.3839505649763653
0.405042489181319
0.4287273727889023
0.4555961817534689
0.4855292196246014
0.2488122132386075
0.2556487335186816
0.2677201176774697
0.2770705544070501
0.2851432329373587
0.2916332394288727
0.296664250693816
0.3018492409585595
0.3088394931346845
0.3185248402792738
0.3311342584187597
0.3473151698044454
0.3658910751642528
0.3860258834425772
0.4100347047303798
0.4378741389591243
0.4677707865220543
0.501290484995134
0.5391552760237969
0.2527703981339548
0.2588899816073315
0.2691631450188504
0.277742282484461
0.2849383665158116
0.2911085930800071
0.2966757120387508
0.3028142891524792
0.3120098693190206
0.3245452697940901
0.3404968984910353
0.3603327451438451
0.3837800872187122
0.4097943050397365
0.4389629587680902
0.4732041847914643
0.5105511096799764
0.5520445919444853
0.6031270032044288
0.2565443563003602
0.2610717534570676
0.2700982155178167
0.277942220863901
0.2843802342559434
0.2901068366121229
0.2962281566265893
0.3039415545760869
0.3149065690435451
0.3307640031434495
0.350410344077297
0.3747818380543782
0.4034236212927851
0.4357321123967939
0.4707594790207203
0.5098740580122534
0.555818565200988
0.6111934547141686
0.6833796824862551
0.2592302357864632
0.2623519741842373
0.2708915214943093
0.2778610407384607
0.2842043383055598
0.2894112539400272
0.2958535687843229
0.3055878811014479
0.3189580929757555
0.3376853395695035
0.3610686647674733
0.3904484254483807
0.4241168682251113
0.4618310751708069
0.503776565116426
0.5503116913869143
0.6067008794867318
0.6817463027217264
0.7755987395499484
0.2615599238885311
0.2637357393318933
0.2717067896616914
0.2777564786101525
0.2837250569739438
0.2892389314297568
0.296492132295105
0.3078633955772353
0.3241901453209618
0.3454714091167014
0.3728134076042748
0.4076893294197422
0.4468500775759381
0.4901826282384738
0.5384145793197606
0.595183625985694
0.6673872912483934
0.7685696010233268
0.8723016026161865
0.2640479772549209
0.2650378387337549
0.2717506681020389
0.2771520584126347
0.2822516109492496
0.2883461185754445
0.2971533388656023
0.3102161057781361
0.3290391049441248
0.3532960278430314
0.3850308570902344
0.4248374138310964
0.4701696648345821
0.5196349986679736
0.5748728027685962
0.6452249038838125
0.7392985959875067
0.8631474014443009
0.9490608528104
0.2665516443133877
0.26638629278425
0.2712187101027152
0.2758768109654063
0.2805455818924269
0.2868299451815121
0.2970720749210596
0.312252998963524
0.3337996719094852
0.3615209998724121
0.3983004231844154
0.4430116658815284
0.4938439982564656
0.5503374303402259
0.6146070401393141
0.700043822354724
0.8212632209104027
0.9536629471987914
0.9980404432513024
0.2691344311387561
0.2679555426402323
0.2709340103579328
0.2744374688370206
0.2790046379441246
0.2855293163549117
0.2970961626688093
0.3142948086779569
0.3379631626496062
0.3691195959434217
0.4112424071946577
0.4624550540637546
0.5183850229517769
0.5824711016115462
0.6589306536730873
0.7630221850650687
0.9076261738608712
1.03886342454631
1.0066403557531574
0.2716200233589277
0.268522204324969
0.2703610107594612
0.2733057396335316
0.2774817776998411
0.2845467404089359
0.2973279066276728
0.3162749819400075
0.3422776103172421
0.3770084136510814
0.4236563433131268
0.4805984106239309
0.542884430396691
0.6141846462342546
0.7024054833912059
0.8329220229435395
1.0026485665317997
1.1232871866091638
0.943388636740946
0.2734173865131712
0.2682575585899466
0.269222103524193
0.2720051551153435
0.2760378211222865
0.2838679027466713
0.2979665694016057
0.318400595275942
0.3474843363750364
0.3864025225766692
0.4371081932504014
0.4998889521054839
0.5697524659301353
0.6486154934257379
0.7544647939332916
0.9125681388702028
1.0946977473946842
1.1419805603133604
0.8570006325328783
0.274424182992947
0.2679367148600968
0.2679014640558688
0.2703387501662574
0.2749892080373486
0.2836801743823361
0.2987116416712362
0.3203870348570584
0.3519244431103086
0.3955784295255414
0.4507895664969131
0.5188783267873784
0.595641927859114
0.684547427065719
0.8119411932327442
0.9944514349350692
1.168425877772891
1.112962492399136
0.7853974372595471
0.275162548813967
0.2674093997448443
0.2666476710819611
0.2685881711755106
0.2737226792635467
0.2830472923819473
0.2988204369359792
0.3223092327393282
0.3562241534999316
0.4041975219342179
0.4651748738164168
0.5379214321737226
0.6205143764756524
0.724370220839501
0.870955449688934
1.0651612448271572
1.2166651884986774
1.0925846904378351
0.711068621285125
0.2756702397544215
0.2666306418949656
0.2650743056286735
0.2666833287251419
0.2720721643336238
0.282107459910684
0.2989638007218875
0.3243476924935867
0.3612868216796087
0.4126290779078647
0.4780396043292736
0.5560180150537587
0.6431035993152926
0.761093892464074
0.9290157889324748
1.127695944755461
1.217228794851677
1.0281830515579014
0.6407015727196113
0.2756738968230173
0.2655039809136554
0.2632753039394314
0.264912579716049
0.270499823583149
0.2810258228631752
0.2991518859586499
0.3261495774817046
0.3655036012173943
0.4197154742830088
0.4898926807253771
0.5734782578606774
0.6663415668591708
0.7940425952537411
0.9811153097993608
1.1850022024781226
1.2195336312201397
0.9673385465473776
0.5813170088991294
0.2754144413108627
0.2642917671793535
0.2615209339344029
0.2634035454489121
0.2691036087416815
0.2799722674426499
0.2989769379592055
0.3272856889081685
0.3686794866447777
0.4264528638056445
0.5019095653074204
0.5891780927575384
0.691010379409971
0.8317766300787174
1.037571084783515
1.2447663622988725
1.2425576738123505
0.936847934111206
0.5408576646925293
0.2751944780962801
0.2633605283577898
0.2599892213429867
0.2618327778803506
0.2675736882613369
0.2790788848032204
0.2989043307905564
0.3288766468067072
0.3725349562985329
0.4341369605601383
0.5121079859866379
0.6027528695277113
0.7152111634947264
0.8679162828676119
1.0842823673003446
1.2757282885690295
1.2371036966210358
0.9036908702628832
0.5128526730899887
0.2744460095683236
0.2623804561116813
0.2582379378359278
0.2600065032523626
0.2660201065587277
0.2783301690654606
0.2994486955902553
0.3313363904548802
0.3760703436882338
0.439993538881732
0.5214888250233977
0.6186828174780783
0.7409981796224818
0.8990165247440136
1.121810606847385
1.2738860934343847
1.1867910409567106
0.853976358156928
0.4860860640336569
0.2732072264836183
0.2610983270464013
0.2562923444184536
0.2579013283929169
0.2643493469377987
0.2774915512409976
0.2999105725828369
0.3336801000973092
0.3793937362791591
0.4447743930549804
0.5297358905116685
0.6314175299662415
0.7570503581768815
0.9256058778139592
1.162640464723634
1.2734491049456669
1.1371135215144983
0.8064844586658776
0.4625399836835798
0.2725914052627161
0.2596815020097388
0.254645901997129
0.2560735757586951
0.2627512294162868
0.2765626354043158
0.2998299255036724
0.3352477488337482
0.3835469066758454
0.4516050126576557
0.5379815485851014
0.6416821674274754
0.7700712232003772
0.9544715188681878
1.2015202516032168
1.287274722232166
1.1224709731229
0.7760826712840921
0.4417889062081317
0.2722968830237882
0.2580189964602669
0.2529966895453121
0.2544507631485149
0.2616609507800692
0.2758014057763239
0.2993331568784123
0.3357753822403212
0.3864534912181179
0.4577231591092728
0.5465732897449328
0.6529250554982533
0.7871872370784128
0.9863730332740472
1.2352172046211107
1.3085267211830949
1.1210573912309547
0.7549083689843392
0.4309651038159836
0.2712596938479122
0.2564831087015228
0.2512785269478932
0.25298496865685
0.2608465402642531
0.2752496803702455
0.2989744212343074
0.3359806319518573
0.3883222357260616
0.4605893860158535
0.5505871648467533
0.6615304253253718
0.8009337236251687
1.0126695840961446
1.2583223628027915
1.318939902117068
1.1207683185655115
0.7389650972075495
0.4200647649041674
0.2702017006221712
0.255289871541835
0.2496487154025096
0.2516314634066429
0.2597034512870442
0.274679762621336
0.2986440766358867
0.3360871863295875
0.3911281530535945
0.4640399868512509
0.5544005310392889
0.6694015797260371
0.8104926677147765
1.0297310248997251
1.2753068504240594
1.3290251928239238
1.119687356292416
0.7242640557405153
0.4076297855332583
0.2691776530184915
0.2539031795606298
0.2480241269494483
0.2500663363244256
0.2581948849791944
0.2737254612515873
0.2980618104841347
0.3366959063366882
0.3938470250820873
0.4676383647109555
0.5601325838715322
0.6758352776469451
0.8171832079696087
1.0455873592756526
1.297707616679311
1.3410855734547582
1.1110942649229998
0.7131594848727458
0.4024249973193508
0.2680653518157553
0.2525847653435602
0.2463542305975866
0.2483913567320729
0.2565309770626187
0.2726424062570841
0.2973592966785169
0.3372220698255214
0.395893840471929
0.4698262210790949
0.5625280739139903
0.6803418179565991
0.8273974250735343
1.0624741465296494
1.314770382711825
1.3469343936539284
1.1043963388014704
0.7078107451199651
0.400870060506504
0.2668878073969294
0.2512330925513896