/*--------------------------------*- C++ -*----------------------------------*\
| =========                 |                                                 |
| \\      /  F ield         | OpenFOAM: The Open Source CFD Toolbox           |
|  \\    /   O peration     | Version:  2112                                  |
|   \\  /    A nd           | Website:  www.openfoam.com                      |
|    \\/     M anipulation  |                                                 |
\*---------------------------------------------------------------------------*/
FoamFile
{
    version     2.0;
    format      ascii;
    arch        "LSB;label=32;scalar=64";
    class       volSymmTensorField;
    location    "0";
    object      tauij_LES;
}
// * * * * * * * * * * * * * * * * * * * * * * * * * * * * * * * * * * * * * // 
 
dimensions      [0 2 -2 0 0 0 0];
 
internalField   nonuniform List<symmTensor> 
13597
(
( 0.2149145537966383 0.052604906478186 0.0424127082109401 0.0434439083218173 0.0196061119335585 0.1857026972248049 )
( 0.2148224563302966 0.0543725628646577 0.0460155520483875 0.0430836075184142 0.0189191470938989 0.1843074811062575 )
( 0.2142424999122118 0.0576402656174877 0.0506713762962245 0.0431172321309827 0.0173153884252996 0.186581865847788 )
( 0.2153573351708692 0.0622812410138164 0.0549298331221013 0.0457383233419955 0.0156190788761932 0.1911714817328558 )
( 0.2162526589235446 0.0665693804413682 0.0570469823504179 0.0496664359601271 0.0139865256210524 0.1945874224323849 )
( 0.2150789414384885 0.069498827115884 0.0571639621080923 0.0531247815269782 0.0123543845802715 0.1959109568751505 )
( 0.214685868796225 0.0720183117043477 0.0563933750650686 0.0564572461758042 0.0109146870742951 0.1961659574941084 )
( 0.2146544730743296 0.0749599294449143 0.0548458305336242 0.0603105177776897 0.0093429328792054 0.1955951586162165 )
( 0.2139338225986211 0.0779130046208285 0.0522862783895884 0.0641900850074326 0.0081094368203227 0.1940907568287907 )
( 0.2141365920946572 0.0802624146018445 0.0496903954933394 0.0676192715955403 0.0066675457460226 0.1916132121995098 )
( 0.2139828843947077 0.0821184008207265 0.0466275247283634 0.0705817578196336 0.0043999925407356 0.1873181571502172 )
( 0.2142960099668813 0.0839147493533785 0.042941665846162 0.0732148027182936 0.0025012252812566 0.1820079097485081 )
( 0.2161337395935005 0.0855614185626841 0.0393637627751326 0.0758528893214522 0.0013052729955383 0.1769914390829801 )
( 0.2172007496410071 0.086930353932884 0.0355897575624716 0.0783843268574014 -0.0002812034614929 0.1709492313848283 )
( 0.2175220097595961 0.0879046167024164 0.0319012583225025 0.0804968569892699 -0.0017313278466963 0.1643069291253509 )
( 0.2191247907569856 0.0886092405646599 0.0291768497792365 0.0827127982118707 -0.0026388781791748 0.1583639893225588 )
( 0.2222583522165219 0.0892517196997937 0.0273276893198677 0.0851359235740163 -0.0032677943029615 0.1529987067097801 )
( 0.2249121193978564 0.0897722775292578 0.0255239431401509 0.0873591281818471 -0.0032777877560082 0.1476076720881236 )
( 0.2277049137754184 0.0907801310179036 0.0235636876461247 0.0901738256238897 -0.0028319547788729 0.1426275377473571 )
( 0.2078129793355689 0.0572767888731046 0.0582941798829895 0.0505079042077289 0.0197579634117344 0.145749932454685 )
( 0.2064448487631928 0.0594198575037389 0.0636358534161628 0.0505574731701335 0.0172029255386733 0.1425640634246635 )
( 0.2046184557881147 0.0629811134952691 0.0699689767566772 0.0507999545486553 0.01146350197265 0.1450085604477523 )
( 0.2046604894455818 0.0671096408127033 0.0749424901967553 0.0538616701771457 0.0053882981964436 0.1519141989802592 )
( 0.2046123110592352 0.0704368368677852 0.0775878945465214 0.0577580727691785 0.0007200173517331 0.1579792402934137 )
( 0.2040897163288057 0.0733655647119247 0.0790852994506466 0.0619442833069147 -0.0032090318644663 0.1633841304469546 )
( 0.2042998430057992 0.0761455269919231 0.0794736536882107 0.0658717958617945 -0.0064146747957564 0.1686289741081479 )
( 0.2055655571053636 0.079086706519546 0.0796778936108752 0.0699482480324256 -0.0092419784237891 0.1736451320798721 )
( 0.2068822531790882 0.0819898443562648 0.0792358213404211 0.0741073429782608 -0.0111462489215216 0.1772721190681994 )
( 0.2088133466406621 0.084723553022673 0.0788402305888484 0.0778385864419574 -0.0125177704624246 0.17978909453956 )
( 0.2111333075076762 0.0872361654952417 0.0780421213896368 0.0809801371170353 -0.0134665436999582 0.1802595476558265 )
( 0.213569126373443 0.0899594421030953 0.0767539449288226 0.0840460708221568 -0.0133119820463827 0.1792886956847438 )
( 0.2174483521441492 0.0926120113915482 0.0759622711879205 0.0865646002557763 -0.012177067833791 0.1779351255812384 )
( 0.2214172602055119 0.0956276669893173 0.0745131541801515 0.0889631270236352 -0.0103110188068456 0.1760911457688977 )
( 0.2240439465968828 0.0986419922595247 0.0721652419943977 0.0916092892679447 -0.0078642209597424 0.1740819868003866 )
( 0.2272412833157461 0.1011659677329476 0.0701985883568177 0.0938439552732831 -0.0051255746617401 0.1722187349379572 )
( 0.231314665505274 0.1036595546738124 0.0687189152949867 0.0958706764166511 -0.0022608043009038 0.1708621937869541 )
( 0.2352834161724954 0.1063332316941714 0.0670661443533407 0.0980608276395682 0.0008345281382192 0.1701985923740612 )
( 0.2393554941992497 0.1092622123844306 0.0645717757980084 0.100668055423398 0.0040471691294253 0.1701449953888637 )
( 0.1980476162647942 0.0587226084732446 0.0707172864632156 0.0593939632295362 0.0175989349113915 0.1178780619563656 )
( 0.1947478341569384 0.0600982845102801 0.0762147434112264 0.0607724851664968 0.0126887242131067 0.1160542674960334 )
( 0.1919509955762325 0.0634061140498968 0.0826204574522846 0.0619464271124099 0.0039393716409346 0.1240338489359473 )
( 0.1910281672060882 0.0671792764630768 0.0882279714253245 0.0661839212446478 -0.0043276743706675 0.1383670755697383 )
( 0.1908113499577863 0.0697151320334829 0.0921768067406421 0.0712667203683921 -0.0096165560550837 0.1498709524687805 )
( 0.1914653611312931 0.0724107088592215 0.0951668150119212 0.0763563447869212 -0.0134278477957667 0.1608358653207438 )
( 0.1927092572683068 0.0749734912111836 0.0974303967332043 0.0812096795903931 -0.0160935982209786 0.1698854626738551 )
( 0.1940523967625677 0.0772882694882648 0.0994316632178423 0.0862766736386221 -0.0176452836954555 0.1762674692098597 )
( 0.1959456778561582 0.079750884330483 0.1004943754550251 0.0908458969178926 -0.0180531476558761 0.179960525673863 )
( 0.19908423244575 0.0825653865697415 0.1011539349537283 0.0949721779488013 -0.0174739698754939 0.1819280203926735 )
( 0.2025996701345285 0.0854984902803601 0.1011009601461007 0.0985588660447916 -0.0157862193774123 0.1815795458180794 )
( 0.2063832043098361 0.0884286741913542 0.1002484072506209 0.1018386408754792 -0.0133626304493891 0.1800004583383287 )
( 0.2112130761933633 0.091451618846193 0.0990887275525875 0.1044962243765122 -0.0104049358062081 0.1781413093051541 )
( 0.2163937214806952 0.0949312918575636 0.0971297476183453 0.1065344718406453 -0.0072148461598199 0.1767985674762075 )
( 0.2213855496344641 0.0984545803888738 0.0948865642639651 0.1086064712808118 -0.0041951547399892 0.1767468531103823 )
( 0.2261804686642732 0.1016975682297893 0.09255318029186 0.1104009045111553 -0.001446560832309 0.1770047607950094 )
( 0.2308416491797799 0.1050116960261756 0.0903563229991524 0.1121253805994644 0.0011051129558246 0.1778307345516636 )
( 0.2356066715185883 0.1087538221484849 0.0882738732746575 0.1142533503612052 0.0036008117281451 0.1796951661198307 )
( 0.2407565889088941 0.112945172840156 0.0857676435545714 0.1164921274403192 0.0061595122715056 0.1823092335059722 )
( 0.1874554831120491 0.0564222311529351 0.0772109733265072 0.0705023778896716 0.0139924711189158 0.1019593469291861 )
( 0.1838633599797454 0.0567722287193719 0.0817828233633524 0.073295458049399 0.0077883062948899 0.1057035096475698 )
( 0.1815733407627752 0.0597326644858577 0.0882211852917795 0.0752687641520492 -0.0017530991217264 0.1221005655023656 )
( 0.1809649798571245 0.0627389274160921 0.0945678151264824 0.0803589256988467 -0.0097656086984642 0.1435214577797647 )
( 0.1809331368574737 0.0640727903679568 0.098830001145171 0.0864736294749843 -0.0137989864236236 0.1581496753695357 )
( 0.1815094258401267 0.0659642669962087 0.1020987545736991 0.0923321567171874 -0.0160319068725529 0.1695768270002008 )
( 0.1834742220776223 0.0679249565413805 0.1048903649558196 0.098115931889641 -0.0170839617641092 0.1773277966455497 )
( 0.1861913210754158 0.0694926698952585 0.1067748939653269 0.1038506531485632 -0.0170610984751016 0.1811991811853533 )
( 0.189685030826087 0.071577235335057 0.1074878744819698 0.1084977773889072 -0.0162403561578937 0.1819207967625964 )
( 0.1943773134464751 0.074193387293577 0.1074038632558202 0.1121347935011143 -0.0151370487658828 0.1808188962548218 )
( 0.2002075401069621 0.0769515675257443 0.1064154281616505 0.1150755164384835 -0.013271257629597 0.1780434431066 )
( 0.2068614169368149 0.0800237951950573 0.1047232267705856 0.1172039524924586 -0.0109525472887567 0.1754773928736802 )
( 0.2147318223167015 0.0835779143362869 0.103038562213041 0.1186865740931212 -0.0086196667826186 0.1748729433991835 )
( 0.2235568011514533 0.0879304700037587 0.101011725520344 0.1205210901295572 -0.0063463662371623 0.1759798176645546 )
( 0.2317847197634077 0.0921656272908107 0.0993870142862761 0.1223550143195897 -0.0043474036276926 0.1785369009547334 )
( 0.2389678851554439 0.0961451404209169 0.0978930534193353 0.1236898061043871 -0.0026227059694306 0.1818102960820092 )
( 0.2454405155052197 0.1002461944243802 0.0962255163093203 0.125330722898115 -0.000839789295131 0.1848915821706481 )
( 0.2524069581989782 0.1047578475474034 0.094808791783247 0.1273081160249237 0.0009792200080717 0.188614186480371 )
( 0.2598376946451806 0.1100514008388642 0.0931093736517506 0.1290587614272189 0.0029550617821638 0.1930769933304034 )
( 0.1787057327193797 0.0515539402270717 0.0786852326835879 0.0829168878377186 0.0109237272244163 0.0976669439893722 )
( 0.1749662421584123 0.0512329224775758 0.0817073662524544 0.0854738767913253 0.004805969510595 0.1082861926623126 )
( 0.1730500977361035 0.0537323500503164 0.088002768077978 0.0879070917195446 -0.0037574966940399 0.1309287350997034 )
( 0.1729302080426472 0.0563264730450257 0.0940539564667347 0.0940395452537902 -0.0099467844803674 0.1545357952954892 )
( 0.1732460837421477 0.0571020039035785 0.0973833835508681 0.1005687443326671 -0.012294316967478 0.1682280114992079 )
( 0.1753687868011365 0.0582340314515124 0.0999666277274105 0.1067162630603972 -0.0135209448588406 0.1765725795494902 )
( 0.1787457593589584 0.0600658412308527 0.1014646859722081 0.1126928909601359 -0.0137827376650325 0.1802727901629433 )
( 0.1832029889871771 0.0617835008385841 0.1019655746153589 0.1179765054375797 -0.0134299457692326 0.1799384285897717 )
( 0.1894918297192418 0.0636240536030773 0.1019201642244024 0.1221638049218498 -0.0130458480540499 0.1773171403028411 )
( 0.1977434794355742 0.0661611804562717 0.1014527102537749 0.1251020731214882 -0.0126306646591303 0.174313038015474 )
( 0.2081429338447538 0.0696765851093303 0.1007348717849087 0.1269833235137751 -0.0116761179495152 0.1724583327886277 )
( 0.2193105279341227 0.0741552361529715 0.0998009047200852 0.1284504319344302 -0.010030284026254 0.1727918894724813 )
( 0.2310885213314673 0.0792812875879857 0.0989297337330621 0.130201202224228 -0.0082293109181713 0.1754351179138961 )
( 0.2428462841636226 0.0853149568572977 0.0976214736605822 0.1324888312528498 -0.0064442880899556 0.1797083530793611 )
( 0.2527078783089679 0.090788700909635 0.0961149668754161 0.1345095775165364 -0.0047144834875795 0.1839026158523067 )
( 0.2613965064920703 0.0959426072170487 0.0944864974902012 0.1360912990429153 -0.0031988611969834 0.1882516962694948 )
( 0.2691717227891184 0.1013803316500318 0.0925264257481432 0.1378834662096382 -0.0016187735549379 0.1918525775785104 )
( 0.27659495575466 0.1067630528396587 0.0905252340099059 0.1398833248455281 -0.0001334215226146 0.195173589040564 )
( 0.2837246280155336 0.1128627541528171 0.0878094851784402 0.141586500558736 0.0013956828018293 0.1985291547984516 )
( 0.1706203806126667 0.0455433846229694 0.0751124024714815 0.0940775216294967 0.0098945334745073 0.1003714487480112 )
( 0.166449350186852 0.0453336001758551 0.076959794430817 0.0963917822810314 0.0045557865793228 0.1158024247716713 )
( 0.1642461923185133 0.0478769139062202 0.0827653697283485 0.099146538636214 -0.0022636553621328 0.1415496391081899 )
( 0.1653944446761708 0.050481806702579 0.0879853025522964 0.1054134532915578 -0.006775179364546 0.163340451611363 )
( 0.1674258066591989 0.051626700370611 0.0901726174460334 0.1119993864759492 -0.0083294183774216 0.1731583869342098 )
( 0.1714273478808461 0.0529566081184204 0.0917551728100057 0.1180775307731284 -0.0094439121635865 0.177192023556831 )
( 0.1774021050625783 0.0552669427600216 0.0923105394604274 0.123455579829307 -0.0102875304050674 0.1769732481169741 )
( 0.1850871086771106 0.0575152841782549 0.0919866841306327 0.1282150253452188 -0.0107440273744637 0.1736424207003893 )
( 0.1950505451995199 0.0600995171724923 0.0913989667603439 0.1324011905391483 -0.0109680337961052 0.1697598806980694 )
( 0.2073309607503212 0.0645370133984335 0.0910009990500956 0.1357175605375864 -0.0107701857696094 0.1677760904285172 )
( 0.2208886547463729 0.069999738948986 0.0910681284373234 0.137801253948033 -0.0099150553633299 0.1688692484347197 )
( 0.2346043656178389 0.076082182577995 0.0907016162030281 0.1394530903145528 -0.0083932550905496 0.1722190596551183 )
( 0.2475494125355424 0.0829339982621477 0.0894334444053482 0.1420703250388144 -0.0067624464516907 0.1769039582251349 )
( 0.2586317547374869 0.090206500024664 0.0873963529728187 0.1449139106302909 -0.005170228541328 0.181564501929195 )
( 0.2675719296541117 0.0970333133470094 0.0844826945255929 0.1471224884106205 -0.0035396281370025 0.1850205146447567 )
( 0.2745111742089069 0.1030859987665293 0.0810653962338089 0.149094517777298 -0.0022339149656281 0.1878676277286481 )
( 0.2805841562982952 0.1089943172157339 0.0774482410762108 0.1510030904235998 -0.0012443228609016 0.1900240490201772 )
( 0.2855820439290396 0.1146195250915178 0.073439382291855 0.1527466472554022 -0.0005975432688752 0.1912815570808378 )
( 0.2897619953708916 0.1206872771257934 0.0686404795034187 0.1541665733331781 4.748058247366507e-05 0.1920992825271579 )
( 0.1616103069089277 0.039997399876109 0.0679571183279099 0.1038015781750092 0.0106708335953791 0.1063510886672894 )
( 0.1571311495970195 0.040548388469924 0.0689607202690851 0.1059273482662701 0.0063775877926239 0.1249981542765161 )
( 0.1562467275640294 0.0441767125880421 0.0743295680663744 0.1088546417780125 0.0008596986711583 0.1504748351435686 )
( 0.1594583464799584 0.0474459870171467 0.0783337097808423 0.114425341712452 -0.0028780566900968 0.1673640674162634 )
( 0.1640359210404458 0.0494981436838881 0.0795510937622775 0.1206473246284206 -0.0047281668245645 0.1727218761161481 )
( 0.1704048175778729 0.0517953806350062 0.0801179532614295 0.1270359970217231 -0.0062768791047662 0.17257192386913 )
( 0.179043966115901 0.0547910889454369 0.0802922583447134 0.132487323180498 -0.0077163986082548 0.1695467776265982 )
( 0.1897691245501067 0.0585219557012135 0.0799506904205166 0.1374174751382794 -0.0087572300990909 0.1654987406096439 )
( 0.2016016313966878 0.0630738388122536 0.0789920513636682 0.1419695217013114 -0.0089473944378242 0.162190274374063 )
( 0.215082745335592 0.0690605293509244 0.0786913263884747 0.1457117355472798 -0.0084913685095141 0.1619476033571557 )
( 0.228910712956208 0.0761551839679167 0.0781448000268728 0.1489902413624039 -0.0074723100028693 0.1644173914103888 )
( 0.2423230515702591 0.0840069897516846 0.0766938083933601 0.1519422872086621 -0.0060038430489289 0.1688157118287214 )
( 0.2542271310906492 0.0920375189222214 0.0742940787295347 0.1550465176901172 -0.0046893098904273 0.173814870678006 )
( 0.263562018732829 0.0998302435332208 0.0707214856168511 0.1581477995029048 -0.0038719148736356 0.1776383059327687 )
( 0.2703854056380227 0.1073941383307589 0.0661911422517764 0.1609363955955637 -0.0030966551113373 0.1801577051987239 )
( 0.2745052982243865 0.1136330844335832 0.0611686213355927 0.1634829625066318 -0.0025697123582401 0.1816618202719551 )
( 0.2773076900469456 0.1194431465043085 0.0560123642477664 0.1655816822982694 -0.0024890352647461 0.1823518448680965 )
( 0.2796369901245396 0.1255373521763252 0.050436809505675 0.1674334364760568 -0.0026561119377041 0.1821611975642597 )
( 0.2815619206613628 0.131902208789074 0.0445012750103192 0.1688670059588093 -0.0029530520559253 0.1809959998251803 )
( 0.1523038458534017 0.0358503767866975 0.0588738265453028 0.1118730686457642 0.012551036033454 0.1133897246164776 )
( 0.1482896522927662 0.0377442620664117 0.0594032422114479 0.1135859929449594 0.0091896476732377 0.1323110316313822 )
( 0.1497338283013438 0.0426932857620574 0.0643508922577788 0.1163529145408584 0.0040467387100641 0.1545407559708871 )
( 0.1545693767742616 0.0469589801829867 0.066876059032653 0.1218563147672016 0.00025615821996 0.1663006677429843 )
( 0.1610841005438073 0.0503414790332757 0.0670754480313758 0.1283434540514143 -0.0022079006146342 0.1675112483336219 )
( 0.1703696373796404 0.0540550489578805 0.0673113394544165 0.1351998994277876 -0.0045072140072407 0.164929993632823 )
( 0.1802253047656717 0.058589745441128 0.0667469538138431 0.1416981971241192 -0.0059537441900935 0.1603889460840214 )
( 0.1919589581940305 0.0640798523563642 0.0660667388137748 0.1473709714186689 -0.0067974614941739 0.1562746272685523 )
( 0.2052272451289553 0.0704444769487389 0.0653675954509294 0.1523986856130731 -0.0068521427761189 0.1542848691432633 )
( 0.2182024089358508 0.0778739775710309 0.064483052335907 0.1568704423620506 -0.0060876055766652 0.1549802332082313 )
( 0.2312010314653814 0.0862813792720662 0.0625429973613263 0.1614993248787413 -0.0051685709320217 0.1581802895459689 )
( 0.2433840934420378 0.0948980684997476 0.0600096848755042 0.1658135392585902 -0.0045156144085484 0.1636055101180858 )
( 0.2527812809927917 0.1033693339218395 0.0563254590221924 0.16957599783166 -0.0041706310786697 0.1682659453591308 )
( 0.2589673448517566 0.1115955674369855 0.0511683253398655 0.1734296643742269 -0.004307898390282 0.1710861389263228 )
( 0.2625587026404745 0.1189511673988779 0.0457888056802784 0.1767919334761303 -0.0044866738654367 0.1728787579552063 )
( 0.2643686088577945 0.1255174634514259 0.0401136511207261 0.1800174089153397 -0.0049296361295254 0.1735210554293171 )
( 0.2652377672908951 0.1321569291334499 0.0342212174309787 0.18292964466591 -0.0056568816587839 0.1733436552580674 )
( 0.2663286503546142 0.1392457180523686 0.0284094817506451 0.185571087640235 -0.0064061680171808 0.1725567163903122 )
( 0.2678392285340603 0.1466921568080932 0.0228753706374573 0.1876051409127156 -0.0072956040466401 0.1706826603448815 )
( 0.142739605180665 0.0334498198952771 0.0485170707370958 0.1183679491238525 0.0149431705937719 0.1181604328757594 )
( 0.1397851523427069 0.0368370872551966 0.0485580546893575 0.1196316044209481 0.0117486911789341 0.1350581503886045 )
( 0.1433173083331692 0.04311641066086 0.0528762960306957 0.1225664516449134 0.0064830543399325 0.1534753373944417 )
( 0.1497965984118946 0.0487833547818686 0.0546443951529114 0.1289271599280513 0.0023698198009397 0.1611676076802199 )
( 0.1579360977434547 0.0539356781415253 0.054227356763113 0.1364368529811534 -0.0007190984127287 0.1596743885087283 )
( 0.1690078173369471 0.0591749937689674 0.0542272499824225 0.1436590332032245 -0.003388884868399 0.1557199726981144 )
( 0.1800356973698569 0.0652904946089484 0.0533778911171297 0.1509505881540594 -0.0048246905024804 0.1506331309666812 )
( 0.1924138178369646 0.0720218284224786 0.0527697131456503 0.1575854618984845 -0.0054581826066673 0.1472608492223826 )
( 0.2059835243319849 0.0796347172270097 0.0521836679416176 0.1637644988546213 -0.0054102756811602 0.1468473168797748 )
( 0.2174316737611012 0.0884498774499648 0.049755111826701 0.1699701616497001 -0.0048900890972506 0.148025611612067 )
( 0.2285335417743675 0.097285614238586 0.046827892879196 0.1755353974182885 -0.0044848337316228 0.1519361686321572 )
( 0.2382033624492531 0.105893776382605 0.0433961060864033 0.1806681055191172 -0.0047607659131704 0.1578414625517691 )
( 0.244114550663494 0.1147517647604836 0.0383003489734167 0.1857764967635831 -0.005631745859094 0.1620438521528005 )
( 0.2475492639939065 0.1235046734800881 0.0323621525022271 0.1909809791328506 -0.0067298557253691 0.1646057766334561 )
( 0.2491211236203417 0.1312226954146818 0.0266873340163526 0.1953668977447746 -0.0076539296614946 0.1661755607144248 )
( 0.2499312186136467 0.1387584625130269 0.0211720206250161 0.1998555771174908 -0.0087280845494263 0.1665376338121256 )
( 0.250650853038813 0.1470756864481251 0.0156884160753464 0.2045204780008822 -0.009924622884481 0.1660725385846681 )
( 0.2524385908979908 0.156014103866021 0.0108529182265715 0.2087182085386983 -0.0109993659655882 0.1652356419235744 )
( 0.2561606282063029 0.1659810080344065 0.0067915551521294 0.2123356441867224 -0.0118393682976072 0.1635841117273154 )
( 0.1339224183603352 0.0327698301957563 0.0387892427731945 0.1243752825500259 0.0165439340564511 0.1220734819655988 )
( 0.1318941771823403 0.038264291738974 0.0385768409496263 0.1256935278009987 0.0129967051606311 0.1367141676048427 )
( 0.1369618421861433 0.0463220334798967 0.0415690681291886 0.1291574375141135 0.007517082264834 0.1507813017124441 )
( 0.1455265725990445 0.0531872372151163 0.0423028698129688 0.1364422767302389 0.0029888238037727 0.1547052030801153 )
( 0.1559964868188434 0.0596965928099911 0.0421369700551263 0.1447456336575185 -0.000469987402941 0.1515496403778612 )
( 0.1678985682613154 0.0664920016710766 0.0417375424404968 0.1530237470979896 -0.0028874245672609 0.146017313283894 )
( 0.1792300114053279 0.0735478906829579 0.0405516640974948 0.1613144025607429 -0.004196548481257 0.1405719192511835 )
( 0.191093015350798 0.0809661210987207 0.0394729587583666 0.1695529076066334 -0.0049506831007774 0.1380874664051134 )
( 0.2024962146839188 0.0890500925884402 0.0380542899756661 0.1773687195845543 -0.0050967311181539 0.1387877479975982 )
( 0.2119243733317092 0.0976551655792003 0.0352688661953906 0.1843902917090005 -0.0051020252618375 0.1415246703637629 )
( 0.2206345833762801 0.1066458897078046 0.0319904533512343 0.190915647169209 -0.0056273355254306 0.1466489557902652 )
( 0.2274181833640572 0.1161314327941268 0.0277608460009088 0.1973519854587394 -0.0068669396277464 0.1525498357204821 )
( 0.2309140734554038 0.1257038368232276 0.0219959573678491 0.2041385915216785 -0.0085447211994302 0.1569622780795734 )
( 0.2331421433611096 0.1350143289148014 0.0164553904723066 0.2108227774239889 -0.0101439722815202 0.1599128362936469 )
( 0.2345238558454168 0.1441157165924023 0.0112292898352247 0.2173677307184017 -0.0116850054727967 0.161247479106734 )
( 0.2359642192384403 0.1537940590315847 0.0063419696155468 0.2243650353551749 -0.0131277554039906 0.1615846660490312 )
( 0.2384171361782106 0.1648289742939708 0.0020398531968459 0.2316282605921838 -0.0143275659729876 0.1612294766711296 )
( 0.2431037377304733 0.1769294979528106 -0.0014153385042098 0.2383184471576534 -0.0152845276408989 0.1602001248982298 )
( 0.2514876758948257 0.1905064228901634 -0.0038316308213306 0.2440000858359841 -0.0157768000439721 0.1584501139952136 )
( 0.125791217803954 0.0341615484152719 0.0300221450870831 0.1298010462722406 0.0171195469583614 0.1246504652225976 )
( 0.125038714313017 0.0416136665595986 0.0295854134085907 0.1317200618315608 0.0129493120823274 0.1367296485487804 )
( 0.131733230407403 0.0512191123569722 0.0310034683469964 0.1367106501490379 0.0070878446662776 0.147121175980862 )
( 0.1416571196098869 0.0590549629720478 0.0305109501392253 0.1443984469986385 0.002562644692981 0.1474502311365105 )
( 0.1532378787112478 0.0666770959947425 0.0300146524418863 0.1534515315668931 -0.0007642444935908 0.1421041679174659 )
( 0.1650766424613197 0.0744275274490434 0.0290867544717228 0.1630773561376646 -0.0030076045901434 0.135610655259441 )
( 0.1760027903426941 0.0815486675989759 0.0277192284423689 0.1725578639096849 -0.004317149142986 0.1304839665204169 )
( 0.1866496412623959 0.0890442587715725 0.0263840982745667 0.1823401428271952 -0.0054645019162744 0.1292236067863127 )
( 0.1960136377087574 0.0972134333513108 0.0246969724972551 0.1913087263827214 -0.0060667308594165 0.1316564657399553 )
( 0.2035596459755051 0.1054041873475078 0.0224670862200441 0.1991740257757613 -0.0067162926941789 0.1365064236096176 )
( 0.2097461304677857 0.114764505716355 0.0191420707262508 0.2075387567345027 -0.0082385880744092 0.1426891505612846 )
( 0.2144735780043774 0.1253683122237351 0.0144731574840663 0.2162475580377455 -0.0102841562663878 0.1488375695997054 )
( 0.2172838689128933 0.1359074494247454 0.0090540872588592 0.2247866288419406 -0.0122718582927492 0.1533806123897642 )
( 0.2196381189797556 0.1468195486589093 0.0041803845833348 0.2336263298242004 -0.014068444688111 0.1563905322380907 )
( 0.2221497077665609 0.1585414911900309 -0.0002509515551492 0.2435868433549272 -0.0158600149162066 0.1577038468997521 )
( 0.2256176545814497 0.1714981811990551 -0.0042351908890589 0.2541876036097548 -0.0173860638828224 0.1578693921295513 )
( 0.2313839765467942 0.1859829840767901 -0.0073401251231231 0.264760444828813 -0.018441704945804 0.1573914791599322 )
( 0.2407580060185071 0.2019930298603141 -0.0093778826097079 0.2744311926051512 -0.0188621460420836 0.1562582409876922 )
( 0.2555110782877055 0.2206676982535958 -0.0104572172975886 0.2830527723182893 -0.0185991854281408 0.1543927208874105 )
( 0.1179012184394875 0.0374636043503431 0.0211440878313241 0.1352562729276149 0.016739803013026 0.1259694441516287 )
( 0.1190111786258303 0.0462144070766246 0.0199971081402508 0.1382000954934558 0.0118138500544171 0.1354305527816899 )
( 0.1281696920458998 0.0569881155458257 0.0206529023105 0.1447821335501042 0.0056949427146803 0.1419628062825623 )
( 0.138687976260537 0.065718798265995 0.0194174088880074 0.1533486631067233 0.0013898130655045 0.1393155212827357 )
( 0.1500690886460285 0.0738967934683034 0.0184123273202637 0.1636737447039445 -0.0018058805507534 0.1324107684357222 )
( 0.1610171861754724 0.0815764183188913 0.0173112180533999 0.174065166889226 -0.0040260234196798 0.1256932868578402 )
( 0.1715599309779667 0.0884748160309514 0.0165789325844994 0.1842749149494628 -0.0055061535668171 0.1220163454113722 )
( 0.1805714321619794 0.0958763058981546 0.015520099216001 0.195154510816994 -0.006803818048242 0.122426696575949 )
( 0.1875472536742927 0.1033900666298966 0.0140220327328092 0.204948193646134 -0.0078108908317471 0.1266228857958279 )
( 0.1932482458228034 0.1119506079770288 0.0117733459347577 0.2149112308992894 -0.0095742032348 0.1326987665707598 )
( 0.1975656733875263 0.1222392085640549 0.0082078315562043 0.2258062551618938 -0.0118357894153132 0.1397020727603295 )
( 0.2012266099180782 0.1338486162789486 0.0036302498434334 0.2372423233876527 -0.0141617051263898 0.1461407239235662 )
( 0.2046087597991166 0.1465020659867355 -0.0010425479487023 0.2488288107864287 -0.0165311534896908 0.1505456272778197 )
( 0.2086311743800122 0.160238977479501 -0.0050261249809144 0.2608935734129139 -0.0183245486345829 0.1536568555864508 )
( 0.2131640816442196 0.1753110809385752 -0.0086936716264892 0.2748719235630581 -0.0198737828758762 0.155120887830005 )
( 0.2193969385006931 0.191712262509163 -0.0116227448531947 0.2895254522046637 -0.0210682434430426 0.155214630032653 )
( 0.2293899930405065 0.2100867948356081 -0.0135537812898321 0.3038202376153959 -0.0216955105089289 0.1544051570298748 )
( 0.2452956587179924 0.2316155030009043 -0.0144707457704649 0.317225683432243 -0.021543407330837 0.1529809016096381 )
( 0.2684005029228969 0.2569796408807527 -0.01468059438029 0.3294360140411394 -0.020790324221907 0.151084257052018 )
( 0.1102656567854962 0.041736294818613 0.0119690293983708 0.1419567190130285 0.0149851156780155 0.1269084069486826 )
( 0.1134758387526843 0.0519414008519447 0.0099999672115819 0.1457301597822542 0.0096833129662831 0.1334119912764876 )
( 0.1250290748539528 0.0632610633606478 0.0102721695522799 0.1529865885071856 0.003654884436769 0.1358541730569858 )
( 0.1367204539994371 0.0724265910174508 0.0092488643993323 0.162746885782966 -0.0005221311332557 0.1307727444163432 )
( 0.1483623094285162 0.0802279591612672 0.0086680169569848 0.1737399608607434 -0.0036418156248346 0.1235314110599342 )
( 0.1577458858719336 0.0869831403911179 0.0079595888021075 0.184807302901292 -0.0057896631297066 0.1176021033661121 )
( 0.1660908186563513 0.0934682602295741 0.0072837089143379 0.1957457867982567 -0.0072020813861421 0.1154962812567285 )
( 0.1726653362571897 0.1006004406305676 0.0062158653602069 0.2077889689643111 -0.0087585371236289 0.1175373000924863 )
( 0.1771672580602625 0.1079043377720626 0.0046430322061041 0.2197126472720905 -0.0104377785706852 0.1228961399869973 )
( 0.1810812882660786 0.1170195359185314 0.0023147351151846 0.2317269614316757 -0.0128538971257875 0.1298150402098581 )
( 0.184965476862298 0.1288346955958045 -0.0011835957411328 0.2456081523631909 -0.0156709444179788 0.1377894935482156 )
( 0.1891327197311754 0.1423614089633966 -0.0050593970783034 0.2604258176176713 -0.0181081297176722 0.1446748477959963 )
( 0.1936310694505371 0.1578787884649297 -0.0088667410231582 0.2759634291196705 -0.0204785216188501 0.1490645411844753 )
( 0.1996575473749196 0.175259462627095 -0.0120493835684433 0.293092731532244 -0.0221301579866745 0.1518709538267887 )
( 0.2068885834680818 0.1935870347644034 -0.0146952613426828 0.3114925472818351 -0.0233420548432225 0.1530233225184794 )
( 0.2171292044573689 0.213902754269153 -0.0166134497016728 0.3302436488997959 -0.0241520075840837 0.1529097206359587 )
( 0.2329890974510577 0.2381403467497324 -0.0177988056050096 0.3497029049695461 -0.024430912566137 0.1520165176784162 )
( 0.2563928273234507 0.2667962824182878 -0.018181841295337 0.3684006960468905 -0.0240178410371041 0.1505172104963561 )