/*--------------------------------*- C++ -*----------------------------------*\
| =========                 |                                                 |
| \\      /  F ield         | OpenFOAM: The Open Source CFD Toolbox           |
|  \\    /   O peration     | Version:  2112                                  |
|   \\  /    A nd           | Website:  www.openfoam.com                      |
|    \\/     M anipulation  |                                                 |
\*---------------------------------------------------------------------------*/
FoamFile
{
    version     2.0;
    format      ascii;
    arch        "LSB;label=32;scalar=64";
    class       volVectorField;
    location    "0";
    object      U_LES;
}
// * * * * * * * * * * * * * * * * * * * * * * * * * * * * * * * * * * * * * // 
 
dimensions      [0 1 -1 0 0 0 0];
 
internalField   nonuniform List<vector> 
13597
(
( 17.773945905115365 1.88301306519142 0.102911097949859 )
( 17.779515387112042 1.9305928775170669 0.1073380432801081 )
( 17.80120287415465 2.0283299575083933 0.112633093955416 )
( 17.835479666700905 2.1546494195468293 0.1174586327725882 )
( 17.86534991744327 2.26313895457087 0.1217817553535712 )
( 17.885050592098917 2.352245206691713 0.1260909682411168 )
( 17.908421087611774 2.4392930617460133 0.1296968764209196 )
( 17.935679881019123 2.533033489686467 0.1336790006923153 )
( 17.964503983448598 2.6274693694584466 0.1359183081917923 )
( 17.995666328091477 2.720501266249764 0.137701696362531 )
( 18.02799410157033 2.8222394541889497 0.1400240113342115 )
( 18.065134756580356 2.9233874144139027 0.140030498756454 )
( 18.10582411698893 3.0223987490494784 0.1393011023778591 )
( 18.145728676118445 3.1267690740260186 0.1384782070008978 )
( 18.184566959709805 3.233209937129298 0.137688659095442 )
( 18.226200781740317 3.337469438686252 0.1381801980131934 )
( 18.272051457193523 3.436338669070671 0.1387778378367995 )
( 18.31845568147973 3.5348685640719912 0.1378068242225411 )
( 18.365771512362727 3.637886299438553 0.1352197593857251 )
( 17.637243847515048 1.929357743405516 0.1488532417035925 )
( 17.624174124426016 1.9914397842971647 0.1600756817992199 )
( 17.62577103418135 2.1189148118312024 0.1743427035114623 )
( 17.632819965222733 2.264044064574327 0.1881161869282231 )
( 17.633805464448944 2.3771762263215326 0.2000565731776027 )
( 17.63152770001796 2.4823746087130125 0.211255372130192 )
( 17.63422771616735 2.5873388273987112 0.2196742153120894 )
( 17.63808991038151 2.6969229140727 0.2277261257226674 )
( 17.64432573298913 2.808729299496357 0.2331934590924793 )
( 17.651859292292034 2.919444726738903 0.2366211564294337 )
( 17.659045660115694 3.040510875640701 0.2388604684290692 )
( 17.66553872484712 3.1686044653962604 0.2384456357855509 )
( 17.671943697426745 3.296631279028948 0.2361331986858231 )
( 17.68113759731257 3.4278726046986936 0.2313039328895939 )
( 17.690063372018955 3.556582245403793 0.2249654182359909 )
( 17.701213788206815 3.677180402060552 0.2185725350536352 )
( 17.71366232218301 3.7873484881217 0.21203577201531 )
( 17.725050670704746 3.89973192268502 0.204151610916682 )
( 17.74132195066826 4.011423634447403 0.1947564336776776 )
( 17.48748895867003 1.9702859856033392 0.190652766212909 )
( 17.449765392756323 2.044542088393319 0.2085376793146927 )
( 17.425874775958903 2.19143331140597 0.2292874691720401 )
( 17.402970839508157 2.349141095497963 0.2484885613100891 )
( 17.37455770583678 2.4684721873928703 0.2628502564327372 )
( 17.351259400556128 2.5864010946187803 0.2735793910961389 )
( 17.332638655229307 2.707074659211912 0.2800581741212368 )
( 17.30759061801816 2.8290707741650936 0.284238770218048 )
( 17.285499556183364 2.956048966677413 0.2845608858264902 )
( 17.267238868144617 3.0915670377513957 0.2816442508704607 )
( 17.2462057525463 3.232843855356513 0.2759388261530278 )
( 17.223950817599746 3.383186064166228 0.2669138960596148 )
( 17.202821019748523 3.5371184496979917 0.2547826393343483 )
( 17.18459208217666 3.6838502495407375 0.2402566470515444 )
( 17.168917004316196 3.817675793177486 0.2257751041309454 )
( 17.1558020646051 3.9362034760428473 0.2116926674987988 )
( 17.14046299354869 4.042633643673988 0.1977493092867953 )
( 17.12400805952904 4.149663077281905 0.1830688671340456 )
( 17.116242667274527 4.259852114741717 0.1678907557982011 )
( 17.321865388569375 2.0045800128293267 0.2271270365138261 )
( 17.260186440197185 2.088663224935224 0.2481591814932809 )
( 17.21332489790627 2.2445647474901165 0.2695707544023861 )
( 17.163151015829936 2.409791209269245 0.2867647748932116 )
( 17.105817233332772 2.5379474340883625 0.296755069484522 )
( 17.055443933922778 2.6637183394311736 0.3007028173582483 )
( 17.00522805004125 2.797247103079696 0.2997509723090412 )
( 16.950834992857857 2.933149952709324 0.2948938477394787 )
( 16.903955101602104 3.0737014859956098 0.2857163762306985 )
( 16.860927950219764 3.2229700201729736 0.2726237779409461 )
( 16.812915597219117 3.380239481719767 0.2554105981681335 )
( 16.76993727989604 3.5428477581004003 0.2352748825965391 )
( 16.731334131114384 3.7038625852130567 0.2139897045433331 )
( 16.690890895857653 3.857567829697749 0.1918217777100213 )
( 16.65092092633028 3.989495437316706 0.1717658953395889 )
( 16.613636699727444 4.101857979407182 0.1541118479230061 )
( 16.57679151466739 4.203934107608153 0.1379148167812905 )
( 16.537406759110812 4.307195736427265 0.1217938847771557 )
( 16.502488404434633 4.4207962150024525 0.1048149139964303 )
( 17.152404363373254 2.0290661266024927 0.2560432374029895 )
( 17.074147662407153 2.1230415585616464 0.2740467054782929 )
( 17.00371280342451 2.287887784424669 0.2910917478781668 )
( 16.924957576857427 2.4555841312166216 0.3005666325958576 )
( 16.84294706744406 2.5887680856454107 0.3009928365576889 )
( 16.767173783960157 2.7204850900373327 0.2959361709856172 )
( 16.68831664691827 2.862498166469165 0.2852782853036931 )
( 16.610099146984886 3.0075017152918644 0.2700457142200445 )
( 16.53971435015325 3.1535303525897382 0.251677988191072 )
( 16.470670937774386 3.3085073168029724 0.2301116890334388 )
( 16.399339280061533 3.477166632002064 0.2052778993816724 )
( 16.332068305285446 3.6486792518941673 0.1799167544565326 )
( 16.267084456772253 3.814057442257896 0.1550828758115281 )
( 16.20035124251136 3.96863302106505 0.1309416014662196 )
( 16.13303250416118 4.095167003649428 0.1102315779253594 )
( 16.067708177904276 4.207926958244721 0.0921313680781005 )
( 16.005889394633783 4.315506209656009 0.0762500722852126 )
( 15.944632412908348 4.423132822034441 0.061454891181273 )
( 15.884492750282512 4.543371844398518 0.0463393266399694 )
( 16.98740344550017 2.041888193538689 0.2732796827802123 )
( 16.89335575741481 2.144973140084902 0.2854388510673136 )
( 16.796651073456058 2.3210341368170795 0.2939650682430341 )
( 16.69485151507351 2.4890527679025483 0.2934903501443184 )
( 16.59414639458119 2.6245158620055165 0.2842864609434321 )
( 16.498470905125814 2.7616835752003297 0.2702398762994863 )
( 16.40219174365279 2.9043662200636726 0.2515363329187488 )
( 16.302863363948074 3.050716280882763 0.2289882272839602 )
( 16.202377936980092 3.2015256340212845 0.2042177921410766 )
( 16.104197031706704 3.3680546715799817 0.1774602274803455 )
( 16.010393551569408 3.5419271438309314 0.1507269217367884 )
( 15.914728967989683 3.714508759200049 0.1247446592583767 )
( 15.821979720965942 3.883148999717109 0.0998310064013903 )
( 15.732272783950917 4.035878454177489 0.0777154696950917 )
( 15.641209755371326 4.162660055247544 0.0590982929536978 )
( 15.556595019572718 4.274202266392493 0.0437010563030572 )
( 15.47421406969402 4.381931022210536 0.0303592117648629 )
( 15.39188685047617 4.491075994833186 0.0180476038506607 )
( 15.311178556315411 4.614503344827618 0.0066193646005805 )
( 16.822729616048214 2.047646854060426 0.2792994006060222 )
( 16.714040769769934 2.159875798329241 0.2843398721581388 )
( 16.59850916081755 2.3418513166503234 0.2828620608391794 )
( 16.47900247069464 2.506570441054436 0.2717523428754183 )
( 16.362542763512774 2.6414264403159464 0.254645539148122 )
( 16.246334602022063 2.7794800407408764 0.2336059450254347 )
( 16.130164007721806 2.923824282514147 0.2097274554294337 )
( 16.010962119809765 3.072844890182108 0.183478981970444 )
( 15.88483616057412 3.225789284939176 0.1559280622397714 )
( 15.765945648070096 3.3951350460059917 0.1291888643093168 )
( 15.64733415625081 3.572870348564015 0.1028977430027965 )
( 15.52365236328404 3.749972221836559 0.0777620338669299 )
( 15.40768984812802 3.9163299848924105 0.0560146912480016 )
( 15.296234754034051 4.064742015287033 0.037090456108363 )
( 15.184546738479169 4.1951172481496 0.0211798992646022 )
( 15.079054618204776 4.304658238937235 0.0091017226354691 )
( 14.97791076857135 4.410142704732489 -0.0011014851294806 )
( 14.876062732187131 4.5240426632054005 -0.0104209665394575 )
( 14.77640996754208 4.65120914299784 -0.0187055154700148 )
( 16.669488958101145 2.0468010109026955 0.2757062828240699 )
( 16.547390471972182 2.162400608981537 0.2721521736693955 )
( 16.41650219857915 2.3445304295224028 0.2612461164208574 )
( 16.280620791710103 2.5066883074538846 0.2418855667731183 )
( 16.14675918129332 2.641841587836238 0.2186709950121586 )
( 16.011778894791224 2.7812100355515934 0.1940805166324276 )
( 15.87334901555828 2.9285672057909675 0.1676988065169102 )
( 15.735008886558836 3.0761028747363035 0.1403399862602748 )
( 15.587566857438157 3.228635470853579 0.1128621371447843 )
( 15.446320176085385 3.4018294623304746 0.0875046351410836 )
( 15.301569494413236 3.582871304804496 0.0631741627892125 )
( 15.155953579436783 3.763383641443144 0.0406539971230417 )
( 15.018708173451794 3.9295045768152175 0.0219612191977465 )
( 14.882543348806152 4.071656092337647 0.0061796755585045 )
( 14.755788205195769 4.195258278624391 -0.0059501448444366 )
( 14.632121925219565 4.305453767457046 -0.0154713152730488 )
( 14.512200125594411 4.415535418035676 -0.0234580676391405 )
( 14.393752166989987 4.5363633500141125 -0.0299412507497166 )
( 14.27787474082114 4.669383780693391 -0.0354368155960532 )
( 16.527480567973218 2.034277965450548 0.2623338475720084 )
( 16.392317307332306 2.147787546189202 0.2500979343006607 )
( 16.24577503092191 2.3297270432218973 0.2319840098799889 )
( 16.0962657900158 2.490259752822855 0.2084556029543052 )
( 15.943821556440774 2.628761130927098 0.1819820200745263 )
( 15.793790260066178 2.766418218365048 0.1558860213339842 )
( 15.638735788804306 2.909956546329449 0.1290257745615843 )
( 15.48217094948227 3.0614993438483338 0.1029453483309594 )
( 15.318080378062715 3.218907562777624 0.0781041357069613 )
( 15.145308733539006 3.391661495234972 0.0529081704816146 )
( 14.975812209842804 3.573970347708422 0.030944986510818 )
( 14.813718877939898 3.753119396174077 0.0123848910085119 )
( 14.651931959466852 3.9191550728782794 -0.0043037878883273 )
( 14.495879284748275 4.060975709260763 -0.0172911839529397 )
( 14.355395503918544 4.180780556659409 -0.0263269764305351 )
( 14.214850953877765 4.2943279432496295 -0.0338648365284703 )
( 14.076698129853678 4.408271636004781 -0.0396114494605164 )
( 13.941067987945646 4.532876894931242 -0.0434555932482927 )
( 13.806805690016082 4.672521549444577 -0.045768500225604 )
( 16.392839081869056 2.0178688978466663 0.2429764249536781 )
( 16.247389817431873 2.1355984866715776 0.2236503216994338 )
( 16.087048122547213 2.314352601953912 0.2006082296371145 )
( 15.923362921330456 2.4665759215334244 0.174962700705706 )
( 15.758047128032322 2.60567636987286 0.1481042216239272 )
( 15.593272965761646 2.7386560932706847 0.1217728425569424 )
( 15.417785394075894 2.8754810794584307 0.0950671687298272 )
( 15.235553987544137 3.028108097658713 0.0695714761119939 )
( 15.053912752495574 3.1865168095150205 0.0471619475130418 )
( 14.86189417546042 3.359090935752161 0.025102850621091 )
( 14.67299190042676 3.546770087371092 0.0054749476623189 )
( 14.492982315755505 3.72935620449581 -0.0106584097677647 )
( 14.313132972530603 3.8921452263160914 -0.024439205780246 )
( 14.143665617296572 4.034617310350778 -0.034360063742108 )
( 13.984330806536365 4.156520351314243 -0.0413857993297323 )
( 13.824685376644489 4.270736937932515 -0.0465468230646586 )
( 13.665660489803363 4.386728405011165 -0.0496564021278513 )
( 13.511403850355103 4.514508774239174 -0.0514901093803297 )
( 13.36110273029273 4.661945801856343 -0.0523597125009774 )
( 16.274289501032612 1.998684180027094 0.2206421929225324 )
( 16.121319660374933 2.11935502988211 0.1974471625062016 )
( 15.941020812012818 2.293439861718879 0.1705812125203276 )
( 15.765825953899888 2.4353579927720617 0.1435870659274822 )
( 15.588541099525262 2.5690285817349414 0.117201892447357 )
( 15.403523564366258 2.6995107592035352 0.0909071603359423 )
( 15.208554243127738 2.830822002687212 0.0648282427943476 )
( 15.009118121455431 2.9772877060961838 0.0410538270315572 )
( 14.807698987252664 3.1395829415171503 0.0208411686652086 )
( 14.601711391998416 3.314927015505992 0.0023333832071368 )
( 14.394824834218769 3.503450636723352 -0.0146546754356126 )
( 14.190779012165374 3.6929498062338815 -0.0288051944287604 )
( 13.99928209632767 3.854436471378812 -0.0393024151459424 )
( 13.816926689452742 3.997504529599328 -0.0464173588614012 )
( 13.634868850566878 4.123393638399497 -0.0515456778182084 )
( 13.453129738896958 4.238268917370055 -0.0549309429071545 )
( 13.27512864047883 4.357770213906089 -0.0570513121158484 )
( 13.1069014155448 4.491409251235398 -0.0581560519462012 )
( 12.9415718841733 4.6485850590051685 -0.05807757450463 )
( 16.165167120896374 1.9723329979338668 0.1948504792149045 )
( 15.9999675241073 2.093457372389518 0.1694329204586964 )
( 15.803159618676348 2.264277784558724 0.1416175794162517 )
( 15.617561628170566 2.3964361998350903 0.1146373865891462 )
( 15.425084679620404 2.5213442895016493 0.0885140144743384 )
( 15.22156823279036 2.64974913968105 0.0624744932776616 )
( 15.01621442331685 2.7844060042895946 0.0389580859657939 )
( 14.801894290377955 2.9309555236891085 0.0181204056462042 )
( 14.58171247064543 3.093706238350742 -5.1948627376737934e-05 )
( 14.35861240543877 3.2686457175729418 -0.0169599071009088 )
( 14.134396681132952 3.4549095093088398 -0.0311099786096063 )
( 13.9113122288506 3.641526551550314 -0.0422302543812131 )
( 13.70082965834872 3.808054298616609 -0.0506355765826639 )
( 13.499109184856206 3.958917924708846 -0.0559346509560243 )
( 13.2959052379091 4.086903092658351 -0.0595750382179328 )
( 13.098295419838044 4.200722432614535 -0.0620393123206943 )
( 12.90911471053056 4.323858759087955 -0.0636390926755827 )
( 12.72828133522706 4.469682905894552 -0.0636508307200676 )
( 12.54894137120068 4.639446082431525 -0.0614466408099191 )
( 16.060617545519573 1.9359379640974004 0.1676251418003385 )
( 15.88516716485232 2.05686980316402 0.1407277528787207 )
( 15.679329225736318 2.224381969215267 0.1138633124460664 )
( 15.47933089877592 2.3535813733620903 0.0877853003712837 )
( 15.27398047327173 2.4772049901742665 0.0630303583989542 )
( 15.056953150366038 2.6038170051592613 0.0389327230126858 )
( 14.837444754841492 2.737134861739759 0.0179451374497526 )
( 14.604952867051688 2.8800923898142443 -0.0009673528783964 )
( 14.366157787536954 3.038465709787965 -0.0178203752699582 )
( 14.129172637547224 3.2166656971777448 -0.0327129018701122 )
( 13.886995248324885 3.4097680503076866 -0.0446165704993453 )
( 13.648182061587486 3.594488186998264 -0.0532708334854248 )
( 13.415589295079052 3.7627032218119063 -0.0595543976947565 )
( 13.188659369051244 3.915773338967132 -0.0635458667629527 )
( 12.973035383853416 4.040185474747267 -0.0666228571473893 )
( 12.769182572748662 4.157665351620401 -0.0681120049667954 )
( 12.568637917179654 4.290505259352319 -0.0680439369933349 )
( 12.37067074064468 4.446824102028433 -0.0658814359936163 )
( 12.168962167697606 4.631629977973773 -0.0607061911167941 )
( 15.9645996497911 1.8909471761475192 0.1404474256546989 )
( 15.78494302917946 2.0122674392446145 0.1141684430463856 )
( 15.565954281418175 2.1771465793166715 0.0882339608403514 )
( 15.351900780271489 2.30387176889951 0.0636437414969089 )
( 15.132614642653474 2.426475926477915 0.0405764979986832 )
( 14.90680204413914 2.5482478662208776 0.019160167407554 )
( 14.672500479055408 2.6778238122957965 -7.421039340002996e-05 )
( 14.429078650693803 2.818625689966572 -0.0172757992039903 )
( 14.173090846983174 2.974996098674868 -0.0325495098684963 )
( 13.915714596459344 3.1560326484124395 -0.0455140354546825 )
( 13.65516507235409 3.3535951304243703 -0.0556385603145289 )
( 13.395383834801985 3.545308197878436 -0.0626096107819801 )
( 13.144543591420453 3.718001513151908 -0.0666389395985918 )
( 12.904409692222 3.8648274753417113 -0.0696821018689407 )
( 12.677829977055548 3.9886054030388096 -0.0721689658479758 )
( 12.459185073870984 4.117481230117004 -0.072218727517982 )
( 12.24331085814126 4.266349905845955 -0.0700092181407358 )
( 12.020987580604986 4.428004245619015 -0.0653561622026332 )
( 11.787703627370108 4.620292948117893 -0.0581547602084098 )
( 15.878630501862448 1.84499226370209 0.1146877043791133 )
( 15.688371055014288 1.9674027856072631 0.0894392385565219 )
( 15.448290419697404 2.1314943402823903 0.0643894712710842 )
( 15.223505396029529 2.249245801865596 0.0413579281432115 )
( 14.996092951184291 2.365928083195494 0.0199202012019862 )
( 14.763029350000863 2.4849984608117115 0.0007610459705468 )
( 14.515149265921394 2.611202630040329 -0.0166443245694878 )
( 14.255978105772888 2.7533846025022832 -0.0323090354257367 )
( 13.988489945154472 2.9095314362523688 -0.0459016338183718 )
( 13.713762460955351 3.0883167559861744 -0.0572814097643336 )
( 13.431411907630553 3.2893622044863844 -0.0656707206216146 )
( 13.149045615948229 3.484535290574623 -0.0702988226815522 )
( 12.880276446858517 3.662884217573801 -0.0727397455957779 )
( 12.633241125473436 3.809611872755151 -0.0750747160935323 )
( 12.397494478816428 3.937457259201463 -0.0757574820314597 )
( 12.162359002203562 4.075713911705402 -0.0741282084394956 )
( 11.921115916657884 4.233686336349714 -0.0702791235385047 )
( 11.67045395205806 4.409525535823486 -0.0639129218671131 )
( 11.42942849231173 4.627057975047703 -0.056848181179181 )
( 15.79949942691095 1.799317727754715 0.0914348521955389 )
( 15.59742878734643 1.919327674199732 0.0671734781866738 )
( 15.342171344969683 2.079176135597446 0.0435134989825257 )
( 15.106581685139597 2.188855203127861 0.0215070013875835 )
( 14.870900572557284 2.296558544014233 0.0014185498804453 )
( 14.62741047036485 2.418805904034888 -0.015533664288647 )
( 14.36774905635234 2.540520483092973 -0.0312734983240727 )
( 14.090923593559337 2.6770330007206837 -0.0454807161806666 )
( 13.808548205310322 2.8394998672212792 -0.057289306276005 )
( 13.518365858698624 3.016963589057944 -0.0668814051217141 )
( 13.210724824477648 3.224377382026347 -0.0735146921844879 )
( 12.905298606722733 3.42731439912512 -0.0765472205215554 )
( 12.629865935709764 3.6015230631125283 -0.0781560467525009 )
( 12.379370345957112 3.7491293983956906 -0.0787021336511988 )
( 12.13115162705377 3.885929057233726 -0.0773690705285424 )
( 11.87528924055466 4.032183156531805 -0.0747411028604274 )
( 11.60548263010332 4.197570389499096 -0.0692136889106755 )
( 11.335954761403965 4.3979143561051375 -0.0634305346662972 )
( 11.11991596040203 4.668309343059989 -0.0578539129196654 )
( 15.72632595425757 1.7520482314810943 0.0705974198699737 )
( 15.509501674982708 1.866828007676332 0.046830260458668 )
( 15.244035963762949 2.023893973781064 0.02515694271518 )
( 15.0045213223291 2.1290017342923244 0.0048466304800402 )
( 14.758659999261983 2.2320379830918 -0.0134758350820519 )
( 14.498900569542652 2.35094048055962 -0.0292501390432523 )
( 14.225256782675151 2.4664122086372338 -0.0443356585673762 )
( 13.942389795855854 2.601561437335673 -0.0566308136770009 )
( 13.64398695972022 2.7677035471577227 -0.0664754675231872 )
( 13.330559915000952 2.942161036610763 -0.0746607994066695 )
( 13.011941433397457 3.1469546203896903 -0.0793285555049902 )
( 12.692891130471551 3.365288401034883 -0.0809829661602944 )
( 12.407253559386206 3.5420543169537586 -0.0811537396644282 )
( 12.14286419188246 3.687484429820599 -0.079824280757201 )
( 11.872234339415469 3.8325512018269303 -0.0781041225879998 )
( 11.585618285556464 3.984478426078214 -0.0748194682582307 )
( 11.29709027681628 4.167529937764758 -0.0693579228530951 )
( 11.039525263571823 4.407521466392321 -0.0652903221751291 )
( 10.861658768404332 4.735005761457384 -0.0584098058306093 )
( 15.653781405074303 1.7033454525353922 0.050682711107527 )
( 15.426367413176608 1.8129485740920688 0.0278938029210215 )
( 15.15144080912325 1.964020813130937 0.0078918251123652 )
( 14.909302780675045 2.064193115247721 -0.0101892554322872 )
( 14.655720143706466 2.168052395992346 -0.0265513051105707 )
( 14.381858385024382 2.282686891320981 -0.0415525348335399 )
( 14.097791348230604 2.388413849720569 -0.0559686398326315 )
( 13.803247775308238 2.525843266986676 -0.0664292650367063 )
( 13.487054250406793 2.695682879487788 -0.0742544312574683 )
( 13.15668056476568 2.8744451703642704 -0.0806314945961968 )
( 12.820169039612836 3.074037279635324 -0.0838999068783111 )
( 12.488281661972804 3.283979408652604 -0.0844914278973509 )
( 12.191433117086834 3.467800995635782 -0.0831175294477175 )
( 11.90632253499851 3.623920473597468 -0.0806520059280369 )
( 11.610281512914002 3.76852383209855 -0.0781990326574094 )
( 11.304015231405394 3.9295133098222257 -0.0740544620482951 )
( 11.009653112436304 4.141098083179693 -0.0702543682145649 )
( 10.784561534570976 4.436375524638462 -0.0663630843163936 )
( 10.607179572153262 4.803745736695024 -0.0568582139442403 )
( 15.586527413691238 1.6522756635846214 0.0326310298475838 )
( 15.35137556999029 1.7557554808511997 0.0111777000991341 )
( 15.063884730836527 1.8968801834515725 -0.0082076040521596 )
( 14.81888888400734 1.996175661313777 -0.024290393907379 )
( 14.55653595773068 2.096434158656855 -0.0389280593308932 )
( 14.26832715921486 2.208939299906684 -0.0526347122253915 )
( 13.983998817277854 2.3153597659013805 -0.0652707573559287 )
( 13.675232606709914 2.4450514768680387 -0.0747202054348316 )
( 13.3377204834297 2.614888736698736 -0.0813602251843749 )
( 12.98943765804855 2.802261633357323 -0.0860372853506031 )
( 12.6303443766534 3.006582289920086 -0.0878158757087336 )
( 12.292972717288404 3.207639089013007 -0.0878623612935717 )
( 11.978687388505229 3.387725102977109 -0.0862668216246713 )
( 11.66848098486146 3.552031105735717 -0.0823050605765077 )
( 11.35831532740204 3.705981737757723 -0.0778460984632892 )
( 11.04511898943766 3.89045446041652 -0.0730715461214799 )
( 10.757382769988483 4.141600874757311 -0.0705883131523707 )
( 10.548990499485216 4.4813464503735485 -0.0663147854653964 )
( 10.26731570661872 4.822260698742074 -0.0564588608057502 )
( 15.527587927294263 1.5993209231069216 0.0170508382168072 )
( 15.279439422462584 1.692981028222219 -0.00407027554771 )
( 14.982038370363444 1.8270167865415543 -0.0227259724961503 )
( 14.7315465462251 1.9247836323414411 -0.0371409727234207 )
( 14.46167564514597 2.02348575773814 -0.0503504704153219 )
( 14.163554800031685 2.1375327750478013 -0.0624797224218676 )
( 13.867624202682896 2.243409031998413 -0.0730855520622291 )
( 13.55185567230993 2.3656690055472667 -0.0814351526512973 )
( 13.202953042829188 2.529247354183771 -0.0871789288666159 )
( 12.833838074578118 2.714473288515074 -0.0910679059441441 )
( 12.458459265132442 2.928259428715318 -0.0918061609598607 )
( 12.111212219715918 3.1368792947672484 -0.0905086573735595 )
( 11.774541177673628 3.313201560630077 -0.0890071872731527 )
( 11.444510920553858 3.474595989007062 -0.0846127905886016 )
( 11.116375126455038 3.654226006193641 -0.077995165633469 )
( 10.797522504151358 3.866903486224457 -0.0735973908558751 )
( 10.52945075099116 4.156707022848391 -0.0719297892007799 )
( 10.27452942600511 4.519510988315472 -0.0641559874933152 )
( 9.797369443112691 4.763530316592633 -0.0552104555297152 )
( 15.468353365622653 1.540243295493115 0.0018866429272384 )
( 15.215415030515816 1.631521293016447 -0.017601940309415 )
( 14.91399114502526 1.7578648045774663 -0.0348995738175537 )
( 14.651368800962524 1.8462095561143272 -0.0486643915252291 )
( 14.373950301495183 1.9462389624182983 -0.0607639256836717 )
( 14.07070650570929 2.0638084784911173 -0.0713448118836806 )
( 13.760629764701212 2.164954555757965 -0.080235359282387 )
( 13.438135946462246 2.281708477921614 -0.087475792725033 )
( 13.071283236963712 2.445532521375259 -0.091974628041423 )
( 12.686361189605506 2.631432644201801 -0.0948822845568748 )
( 12.29753419205634 2.8451368898651346 -0.0953525149991145 )
( 11.925860916355903 3.058965157094266 -0.0929902918208739 )
( 11.579059144734387 3.2432835486155245 -0.0900944306661135 )
( 11.242734808809068 3.4062294031763978 -0.084832199153627 )
( 10.895408987644208 3.6046062864111263 -0.0791152447509434 )
( 10.565850084353553 3.851300112229795 -0.0765165410829918 )
( 10.303156419772382 4.173722121166244 -0.0719431558000131 )
( 9.953901635638182 4.527949756785481 -0.0617561948487712 )
( 9.172829552421211 4.599935887503968 -0.053608088092631 )
( 15.411513031253929 1.4791186937046643 -0.0123885505176223 )
( 15.156302311826058 1.5705481178334266 -0.0295356121900937 )
( 14.850214231088028 1.6930563751132868 -0.045471657661167 )
( 14.581349390572855 1.7764282007174994 -0.0585184215147376 )
( 14.29239855785579 1.8724110396700904 -0.0694731116246737 )
( 13.974200079198404 1.979419583613992 -0.0791509100560275 )
( 13.655206623410722 2.079500675622286 -0.0870997337085925 )
( 13.326945347612437 2.1941540329604856 -0.0936568887386433 )
( 12.93561973859778 2.358947774175882 -0.0970981073240251 )
( 12.535700324599055 2.5528264722600382 -0.0983039854054202 )
( 12.144651651084834 2.762582303753914 -0.097743347671085 )
( 11.763386476804207 2.9787445082074733 -0.0944181594832545 )
( 11.40352207693006 3.173533174901174 -0.0900278534491059 )
( 11.04222312533391 3.344153640336513 -0.0835899773517269 )
( 10.68646019943088 3.552628309139348 -0.0784554360437877 )
( 10.357763380576534 3.833222339985151 -0.0761997892175024 )
( 10.046428687808673 4.184029073510584 -0.07020135198187 )
( 9.61275311267216 4.510392557457204 -0.0620741931137756 )
( 8.34096609956009 4.287322209203839 -0.0499553250027067 )
( 15.35920295620063 1.424224963687876 -0.0243912282563727 )
( 15.096674801088358 1.5102757479990203 -0.0407464295443508 )
( 14.786202356670596 1.627531370637222 -0.0558149238314043 )
( 14.516216340645409 1.7101318897338476 -0.0675466267813743 )
( 14.216824685598375 1.7992083038030664 -0.0776347878418298 )
( 13.890638558225431 1.89545912433007 -0.0863842035701122 )
( 13.563385846138436 2.000206542407767 -0.0928652405794239 )
( 13.21937801872004 2.1220826996248885 -0.0982628897631305 )
( 12.80895987889638 2.280205645234456 -0.1014719059940791 )
( 12.388552876677512 2.475896803405157 -0.1013668145717199 )
( 11.991397113634331 2.681337966270338 -0.0988995109074724 )
( 11.60915333112195 2.8853500887559327 -0.0951324995620003 )
( 11.23247739041266 3.080534710125273 -0.0900289543631879 )
( 10.848457524244957 3.2695152522034707 -0.0836871599395217 )
( 10.481551703982408 3.500943573843628 -0.0772220825073986 )
( 10.145630668196482 3.809827613287469 -0.0721650661576933 )
( 9.758725516337469 4.172166226879392 -0.0664807671262085 )
( 9.090021478342509 4.378678125650686 -0.0575489856452653 )
( 7.506997306533103 3.937145306307203 -0.0426224386869069 )
( 15.31270573594668 1.366614345239319 -0.035172574818188 )
( 15.043957305170949 1.4505945907213174 -0.0508157948753858 )
( 14.724241601321364 1.5625255557515267 -0.0653510561631353 )
( 14.45018356321534 1.6383339707628086 -0.076148355795732 )
( 14.145878624875444 1.7268168859516655 -0.0845833746177044 )
( 13.820300221262125 1.8256784681245404 -0.0927009180121904 )
( 13.489483001050914 1.9296200298499488 -0.098277203899249 )
( 13.123666396061944 2.0490153848331816 -0.1024013910806406 )
( 12.701984305390384 2.2053597988631006 -0.105245694768367 )
( 12.273385305771194 2.3990783688078463 -0.1040138159469903 )
( 11.858562507508587 2.6026349254962797 -0.1005749782155231 )
( 11.451099029993395 2.797942433002481 -0.0963896548947302 )
( 11.054148330732469 2.987030267836109 -0.0917169786068687 )
( 10.658995403821804 3.188918877017432 -0.08648539648562 )
( 10.28541699569921 3.4509350286340195 -0.0794010838035052 )
( 9.923961219496409 3.79587670404379 -0.0728557501923735 )
( 9.467213494886924 4.145275546186478 -0.0645273144406906 )
( 8.488184062042224 4.16103520283115 -0.0510115300566891 )
( 6.7697871118018265 3.603576255531115 -0.0379406916214833 )
( 15.27066224829257 1.3060690665438877 -0.0453149042438201 )
( 15.00089279511263 1.389213947391425 -0.0596994467449856 )
( 14.67144027759193 1.4987612027039892 -0.0732472217942493 )
( 14.388539641134276 1.568305254800522 -0.0829845906357563 )
( 14.076991069102364 1.652205393145341 -0.0908581038380839 )
( 13.747710488017052 1.75062081804876 -0.0983763439314878 )
( 13.409947549170887 1.8436299751837688 -0.1038372813544799 )
( 13.032345722001471 1.96143059039239 -0.1071608321708646 )
( 12.611345700810327 2.1276837679979 -0.1084288659747544 )
( 12.17568292673412 2.319035835308773 -0.1064038504518985 )
( 11.738695644763547 2.524882728540144 -0.1032653274284923 )
( 11.305319748169016 2.713921166525421 -0.098499500978059 )
( 10.889948720176095 2.8990615618098143 -0.0944463507565377 )
( 10.47358142125272 3.117539081674776 -0.0895529988155013 )
( 10.087790620317508 3.3995425568992297 -0.0810175180984042 )
( 9.67563267595827 3.7623051720580154 -0.0744617089457418 )
( 9.12377636560427 4.070172207353585 -0.0659961746494164 )
( 7.959541768981861 3.937997182077916 -0.0491646555274517 )
( 6.069176712122421 3.2531044514911063 -0.0350250372972608 )
( 15.233532150300132 1.2536009444752532 -0.0538475349410664 )
( 14.960351739440926 1.3306915781589237 -0.0676180662707987 )
( 14.624112631192991 1.4330125007272925 -0.0806186612184387 )
( 14.33395984390488 1.5006183057308946 -0.0896317119172503 )
( 14.015723083442223 1.5772427799120623 -0.0971931956438059 )
( 13.683463004503594 1.6664025661913775 -0.1036445843043644 )