/*--------------------------------*- C++ -*----------------------------------*\
| =========                 |                                                 |
| \\      /  F ield         | OpenFOAM: The Open Source CFD Toolbox           |
|  \\    /   O peration     | Version:  2112                                  |
|   \\  /    A nd           | Website:  www.openfoam.com                      |
|    \\/     M anipulation  |                                                 |
\*---------------------------------------------------------------------------*/
FoamFile
{
    version     2.0;
    format      ascii;
    arch        "LSB;label=32;scalar=64";
    class       volSymmTensorField;
    location    "0.0014";
    object      tauij_LES;
}
// * * * * * * * * * * * * * * * * * * * * * * * * * * * * * * * * * * * * * // 
 
dimensions      [0 2 -2 0 0 0 0];
 
internalField   nonuniform List<symmTensor> 
13597
(
( 0.1453938108010487 -0.0653386529733592 -0.0196785254392949 0.0849215279687893 0.0150920350365162 0.0834462681760379 )
( 0.1499859143687439 -0.0687965673500538 -0.0192108390411645 0.0838067677913464 0.0152030390623069 0.088558712746439 )
( 0.157574259381264 -0.0763279563506567 -0.0173317280935132 0.0837475111581488 0.0150710790541156 0.1022914793358759 )
( 0.1653628212174068 -0.0845344815876314 -0.0136164808198177 0.0878866355923455 0.0148612080744274 0.1257238643312013 )
( 0.1708323487496832 -0.0893585579355118 -0.0096654333630756 0.0937529224669346 0.0142822614755871 0.1483748885632412 )
( 0.1744304325824556 -0.0913765534502505 -0.0057856540322385 0.0991160684561877 0.0138574495116871 0.1667230097183013 )
( 0.1767914947449361 -0.0921634841333678 -0.001935050383042 0.1050992640879662 0.0133475966327492 0.1834916942056897 )
( 0.1787730364209486 -0.0917522260007078 0.0024024414731759 0.1114082786874654 0.0129620266483919 0.1991246437536678 )
( 0.179421803974733 -0.0901680481026171 0.0066497300944368 0.1178435046815258 0.0130609310020795 0.2123411875456057 )
( 0.1792161226536898 -0.0875150788025487 0.0108336820676579 0.1231407010664236 0.0130390963183291 0.2224568950883641 )
( 0.1788121299544102 -0.0833918541935715 0.0157388761212599 0.1274267645009305 0.0140828436258499 0.2304268250945294 )
( 0.1778188447490489 -0.078841492129207 0.0197320815397516 0.1306102585312918 0.0161816912116369 0.2357050253297714 )
( 0.1763818306122284 -0.0737759465763697 0.0233518336682354 0.1315469898787164 0.0180827937698241 0.2370725639494426 )
( 0.1742504553062985 -0.0680128610003072 0.0270759122631383 0.1314446702584275 0.0208586640910305 0.235081004923267 )
( 0.1720594533920496 -0.0626381671691231 0.0300586341596992 0.1308504282156714 0.0250440946654632 0.2298858488605381 )
( 0.1700326557456609 -0.0571588301575857 0.0329423421569299 0.1289043806368558 0.0288474734382668 0.2223834957040315 )
( 0.1671982968216903 -0.050879419632426 0.0354708421759771 0.1247983625902751 0.0316889924726447 0.2138170894035027 )
( 0.1638948747812438 -0.0445880127983361 0.0369948423122751 0.1191334732267171 0.0341310493606528 0.2032127919300402 )
( 0.1605459604478135 -0.0388826512487199 0.0380384440282378 0.1137088538346217 0.0366441032969924 0.191869832172691 )
( 0.1509922586189588 -0.0498198385378471 -0.0118049788819652 0.075002134937782 0.0201431515146834 0.0939675649212046 )
( 0.1558525155861741 -0.0520550092650205 -0.0079723494338381 0.0725291659604004 0.0207009362846533 0.1041024691490292 )
( 0.1626794245743125 -0.0593299567443156 -0.0012327444973884 0.0728262079282009 0.0208853707177193 0.1276282116463801 )
( 0.1703398412347126 -0.0664309019060572 0.0069126525158392 0.0805138603723308 0.0210409137123476 0.1605981113818256 )
( 0.175469722409898 -0.0692219834931053 0.013775415006561 0.088478654747831 0.0211537448103037 0.1859685687178192 )
( 0.1785926317101167 -0.0695481921319431 0.0203233542404208 0.0958783914737832 0.0211632416217262 0.2070787935740471 )
( 0.1813408384611483 -0.0693776186195175 0.0258138322700053 0.1042432330596659 0.0212842761849923 0.2243524770395283 )
( 0.1843266577021166 -0.0685997276055986 0.0310375497333534 0.1129431114037844 0.0221840037546297 0.2376006029062159 )
( 0.1866690080250824 -0.0665816679251232 0.0359308266960513 0.1205672505059978 0.0237369501803206 0.2462931256854068 )
( 0.1881248344423619 -0.0639858400665031 0.0399655349170462 0.1259284888295712 0.0248542272890469 0.2498538472732394 )
( 0.1894002861699281 -0.0608735284824003 0.0435038242801338 0.1297276632983859 0.0269726400845699 0.2480362133123735 )
( 0.189462943428309 -0.0572506423437075 0.0459405867323282 0.1316243986793681 0.0300043258526836 0.2409850817293754 )
( 0.1890905666934521 -0.0532941591322769 0.0466847767006994 0.1306675817442798 0.032800079967873 0.2288728620891827 )
( 0.1886647546784511 -0.049229795074436 0.0466415447550855 0.1283489844409445 0.0354083033429853 0.2133714958757392 )
( 0.1877366439133483 -0.045444629950254 0.0457201234874153 0.1254689685269774 0.0377326340530971 0.1962844641703572 )
( 0.1867672915002275 -0.0420275303178992 0.0436107394819286 0.1218739260584303 0.0389389272371952 0.1789414437388154 )
( 0.1852049758424226 -0.0385002065993156 0.0409791972616737 0.1172923969618737 0.0387001479092026 0.1625940987696029 )
( 0.1834584525537302 -0.0349600954468504 0.0372810275534509 0.1116183234951984 0.0375822882142169 0.1463177823342184 )
( 0.1822258493939451 -0.0319126738727935 0.0330614169792279 0.1064191535654074 0.0360592670946486 0.1317940919680055 )
( 0.1518546398621585 -0.0342270658350516 0.0028391714423354 0.0657326219241488 0.024680957514702 0.1089631611991553 )
( 0.1532325529566586 -0.0349160698974646 0.0105404883079812 0.0625189707702873 0.0257895088094975 0.1253516393669017 )
( 0.1550529584431184 -0.0400483819601147 0.0205613535507167 0.0637262227187632 0.02586473253625 0.1576015742600963 )
( 0.1569951045040283 -0.0433471601268782 0.0305890753635174 0.0726886843527184 0.0253980811174127 0.1950874029127219 )
( 0.1576898764263946 -0.04245070421781 0.0381387439160577 0.0806294332990347 0.0254362430920816 0.2192494465998445 )
( 0.1581417869109275 -0.0402954893990478 0.0439415768703288 0.0887015567538976 0.0257501801194499 0.2371713302173645 )
( 0.1584089988875034 -0.03834559578231 0.0475849928050427 0.0964105208842028 0.025537687450349 0.2477864539671379 )
( 0.1583670929324702 -0.036033259092431 0.0500719010705601 0.102757246217188 0.0257767449761308 0.2513149502721303 )
( 0.1584202900345643 -0.0334938681582234 0.0510098776392391 0.1074255766412485 0.0272086390844717 0.2481653833053005 )
( 0.1583848365264168 -0.0311179432020976 0.050220901761614 0.1103117249911773 0.0280041003140324 0.2386929581002081 )
( 0.1581442018149346 -0.0286967654143626 0.0477457313659904 0.1110661502990155 0.0292611143689172 0.2227106105613751 )
( 0.1580376321163684 -0.0262240854675429 0.0436422652078096 0.1097463538941415 0.0307703000324389 0.2021304928805621 )
( 0.1579936521796783 -0.023641461430168 0.0377080217274343 0.1066987599161997 0.0312564264427061 0.1792963915017885 )
( 0.1574041492042601 -0.0214661913104994 0.0309291549061731 0.1031204739715424 0.0305145802283035 0.1570699907503689 )
( 0.1566135046779256 -0.0196698223619184 0.0243099239907783 0.0994127671603095 0.0289177409691776 0.1378029452418102 )
( 0.1557910913058029 -0.0180958188934818 0.0177614254958787 0.0958374679670775 0.026913460734032 0.1217753835618062 )
( 0.1543696743977194 -0.0165117403438658 0.0114865347239225 0.0921816533627604 0.0242024703384273 0.1085218001485895 )
( 0.1522050605909197 -0.0147701132680816 0.0050286714972503 0.0881452167897581 0.020858172007791 0.0972238940462551 )
( 0.1506063777819924 -0.0134675858712893 -0.0012076250337241 0.0843481579040249 0.0172011032513995 0.0881141809143912 )
( 0.142151691496384 -0.020169873983709 0.0210054029241024 0.0579484947990512 0.0280102812428275 0.1284538742853875 )
( 0.1385297214744503 -0.0193579757519422 0.0307629084682489 0.0550768699102621 0.0293803033923276 0.150851359869137 )
( 0.1344242002314131 -0.0213271473946759 0.040277027246779 0.0567838959544838 0.0288991754296085 0.1857668824577223 )
( 0.130773319313997 -0.0203233002617223 0.0482235336039233 0.0650099681135814 0.0269864896054372 0.2196857964379114 )
( 0.1272162501247032 -0.0163195905580867 0.0527568154517215 0.0715480602481799 0.025359357542426 0.2377008464124257 )
( 0.1247446419360259 -0.0123886585320472 0.0541249042659058 0.0777857339536705 0.0243161354523878 0.2459107201279161 )
( 0.122477062922523 -0.0089363112436878 0.0527400569044672 0.0826690007844922 0.0234511876142676 0.2441921249209487 )
( 0.1207965884841477 -0.006162215481337 0.0492902895707283 0.0859684360340183 0.022539563961304 0.2352293709446185 )
( 0.1202076471636056 -0.0043699198498783 0.0441418960746088 0.0880257446511019 0.0224972252596103 0.2205640463784691 )
( 0.1198375982111789 -0.003298912115766 0.0377416630927854 0.0887372972853069 0.0225328898703979 0.2008387211497211 )
( 0.1191587675700458 -0.0025245269460204 0.0296127757202255 0.0873649592401235 0.0224248313221211 0.1762097789411786 )
( 0.1196452483048645 -0.0024152159839013 0.0208131454735711 0.0852284994674055 0.0217069453990471 0.1519325422180823 )
( 0.1199326106014836 -0.0023148006475863 0.0123218339941957 0.0823376337316427 0.0195271524766836 0.1302157496363335 )
( 0.1193774793425433 -0.0022273526644696 0.0040039661853656 0.0793035665293817 0.0168105257312064 0.1125438776058861 )
( 0.1185807543758119 -0.0022501747599875 -0.0032459769407286 0.0767133500176174 0.0139478795793537 0.1005726935729198 )
( 0.1171419628099119 -0.0020097834488848 -0.0089005113412907 0.0743718893327483 0.0107461088251459 0.0928030079193612 )
( 0.1152738837519216 -0.001718395590848 -0.013897819685243 0.0720830757167243 0.0075417493178058 0.0878981257362988 )
( 0.1127922953165421 -0.001391834699937 -0.0187017507352855 0.0697184235517515 0.0041021656232464 0.0850039021382481 )
( 0.1103436263893861 -0.0011888070584673 -0.0232951823910536 0.067433850886643 0.000255731867355 0.0839791945058738 )
( 0.125680407851868 -0.0086399727224954 0.0380141537276215 0.0527040126555025 0.0307855402080033 0.149958139086957 )
( 0.1171497866705694 -0.0065426708826071 0.0462617094202746 0.0498208120492349 0.0311077210521268 0.1744983958245994 )
( 0.1096890009866921 -0.0048087430857332 0.0521489282452819 0.0516119839096319 0.0289718343276273 0.2063322130463579 )
( 0.1036513496399495 -0.0004619975236963 0.0548802049985856 0.0581552998875235 0.0247478321914081 0.2312101395904556 )
( 0.0989583425729124 0.0050689672891315 0.0536814364911349 0.0627963138252834 0.0212153560002718 0.2380894799325657 )
( 0.0959438377091716 0.0091922596010556 0.0495910073829125 0.0667939764113243 0.0184400290277274 0.2344692102033287 )
( 0.0933013510827569 0.012123250891358 0.0429308205872726 0.069359988457584 0.0165596704523586 0.2214955537711755 )
( 0.0917448098035121 0.0141188130217284 0.0348650111092466 0.0705434965243165 0.0152660418900966 0.2026771430074204 )
( 0.0912638898404204 0.0146513453467716 0.0266904064727973 0.0703904243484154 0.0142698242717186 0.1814676383298136 )
( 0.0910168585462264 0.0137568277486902 0.0182850944114437 0.0694068791778484 0.0140855898490706 0.1583858896197086 )
( 0.090930098433415 0.0123444027030372 0.0097110676920529 0.0680075344745978 0.013186030756129 0.1362676642610009 )
( 0.0912823814981946 0.0108467920156843 0.0017335786470232 0.0665786061855926 0.0109941374711053 0.119071219559921 )
( 0.09126345172663 0.0092895920089798 -0.0054911374765722 0.0649173444043946 0.0079236021053926 0.1073666658875739 )
( 0.0904040765196611 0.0080323832198486 -0.0118503707754481 0.0635097808698304 0.0045156660920504 0.1012652631456179 )
( 0.0888332847978821 0.0071924851888679 -0.0169294439585894 0.0622084977006019 0.0010449841722967 0.1000348690186956 )
( 0.0868538758888879 0.0065520103745739 -0.0209143892248171 0.0610064295543546 -0.0026207134353879 0.1017395892981223 )
( 0.0848328994787211 0.0058778542700233 -0.0244671479559255 0.0599734829962383 -0.0061203352085794 0.1049317208067928 )
( 0.0829532738906566 0.0052231552200239 -0.0277158230747189 0.0588844285636648 -0.0097113286025692 0.1092122951888396 )
( 0.0811088328205453 0.0045771426694502 -0.0309248934513905 0.0577653690583749 -0.0137098074328041 0.114640156406711 )
( 0.1070589151615222 0.0003012332575599 0.0490933025646338 0.0492188718378442 0.0321915325583472 0.1693754226643466 )
( 0.0962893723139452 0.0039554464622823 0.0531460338302303 0.0460405992832428 0.0304828939481361 0.1914452014647455 )
( 0.0881004568324053 0.0092942198066994 0.0540920516197872 0.0477053193335834 0.0256858597084085 0.2157535437682154 )
( 0.0831425951338059 0.0153951553633719 0.051169157423982 0.0526547594553621 0.0191292813522044 0.2284828959312863 )
( 0.079899442961516 0.0204225901914323 0.0448166797124724 0.0553590979787467 0.014462432199464 0.2237664242855362 )
( 0.0777479174942034 0.0236633692046161 0.0373278530734751 0.0574105616694139 0.0112858350832381 0.2102648628005888 )
( 0.0760511638766263 0.0252217226039721 0.0288333508119529 0.0581748818178969 0.0092200792051667 0.1911889249044045 )
( 0.0752815095836773 0.0254811293090673 0.0200928182728741 0.0577380517378872 0.008313187875898 0.1697463612522538 )
( 0.0744326964141211 0.0243988184506847 0.0122570052255964 0.0564278917548699 0.0073446878747424 0.1493293204290575 )
( 0.0739107106375763 0.0220624998084721 0.0050128379250001 0.0554344770205188 0.0065422947515486 0.1318049618152199 )
( 0.0740148859793342 0.019234224131817 -0.0013786273195105 0.0551659924301391 0.0049449628874803 0.120377815774805 )
( 0.0735029866514576 0.0163650545749446 -0.0070057737681627 0.0548696219271603 0.0020095929881696 0.1148701589298643 )
( 0.0732830490320914 0.0136759113347535 -0.0121298902834483 0.0546786697929117 -0.0017849242006605 0.1153876593147111 )
( 0.072886274904281 0.0114411534122958 -0.0164973661441679 0.0547025258519123 -0.0057184690605266 0.1197548485470093 )
( 0.0713804863220174 0.0099021773968858 -0.0198011251157465 0.0545731271537531 -0.0098872400985134 0.1264588286250921 )
( 0.0700286788681146 0.008735795373387 -0.0224678948972098 0.0544302004869683 -0.0138450683988178 0.1340884436871786 )
( 0.0690500279809887 0.0077217121279061 -0.0249199688265617 0.0544028710032078 -0.0175190067299822 0.141612702687398 )
( 0.0683287230769365 0.0068680513290674 -0.0271502954876814 0.0541855934292193 -0.0211539175328973 0.1487976959541739 )
( 0.0678615528411017 0.0061684555984429 -0.0295587614611495 0.0539413147351309 -0.0248653074950549 0.155702277708094 )
( 0.0906797813818417 0.007190460476261 0.0528134834628644 0.0474991869147399 0.03147071786933 0.1843785973059816 )
( 0.0818582036918196 0.0124610818547407 0.0522765603041981 0.0446217916139491 0.0275255791768053 0.2017670714889137 )
( 0.0753420536338551 0.0195933813101359 0.0487756378377171 0.0453049194679177 0.0201795957063516 0.2153187619777005 )
( 0.0719237542155197 0.0259899670869024 0.0417475613420326 0.0480997203978661 0.0125290481553528 0.2145381870471539 )
( 0.0701909213633377 0.0299529998264012 0.0331419753773925 0.0492911119150948 0.0077144728392569 0.2016326079223321 )
( 0.0687180206002611 0.0316029912748096 0.0247648755509094 0.0494805418114906 0.0046696291723995 0.1832794605605121 )
( 0.0675777545392045 0.0317651152076864 0.0170547439619791 0.0488081713009165 0.003207563122503 0.1634726646729037 )
( 0.0665976270787243 0.0301911891909531 0.0104956448617082 0.0479982157015113 0.0028801549150309 0.1461132270840938 )
( 0.0653652939539238 0.0276173701007156 0.0050156290098469 0.0472115499126497 0.00189644860276 0.1336536268217882 )
( 0.0649100773971174 0.0242691388306296 4.6430882864869584e-05 0.0471392970683138 0.0005702473760605 0.1270562066268633 )
( 0.0647516496006767 0.0204040930431443 -0.004314082928606 0.0477325048157742 -0.001659010441759 0.1266354004703278 )
( 0.0638662613803696 0.0166908970422087 -0.0081558121322457 0.0485164277290045 -0.0055373179382252 0.1319260123893536 )
( 0.0637329728075803 0.013516929058679 -0.0115960905131847 0.0497235329823179 -0.0101165071716454 0.1409643300954605 )
( 0.0637574332698719 0.0110602386299488 -0.0146022698879655 0.0508144534394656 -0.0147127051502203 0.1509388233842357 )
( 0.0631449012890985 0.0094075703155141 -0.0171207044003564 0.0516180644182423 -0.019215787245677 0.1612040562826742 )
( 0.0629909705073751 0.0082630621881403 -0.0189779631544609 0.0522175686163229 -0.0231691618766277 0.1704878927277779 )
( 0.0629597315023045 0.0075843406090284 -0.0206391053020003 0.052676340662652 -0.0266264033311227 0.1783242935460687 )
( 0.0630293082377791 0.0072780418009718 -0.0224513941164958 0.0530349556105236 -0.029818486097315 0.1849139061652103 )
( 0.0635107378602529 0.0073408934517819 -0.0245000524134417 0.0532605837313982 -0.0327152962253097 0.1897625330508217 )
( 0.0821878921307212 0.0119510905450761 0.05059668042347 0.0477330287976556 0.0293383328170629 0.193383188574558 )
( 0.0766070746907674 0.0182991133376695 0.0462599754535819 0.0448016633316221 0.0231256292131985 0.203889939536158 )
( 0.0717399790927818 0.02613954900604 0.039577014938001 0.0439557104827183 0.013805200066825 0.2069171604096842 )
( 0.0691794819403188 0.0315824834707972 0.0312200406809258 0.0447045781059199 0.006229119178848 0.1967530260927433 )
( 0.0675091404467654 0.0341115394551635 0.0227971953795015 0.0445637299504962 0.0020557894840546 0.1793685779803159 )
( 0.0661215517816982 0.0343324235187562 0.0157248037257071 0.0440258204420562 -4.647828526579006e-05 0.161513645317774 )
( 0.064535231219177 0.0327634229378153 0.0102840746123748 0.0431246483095096 -0.0013043306348913 0.1463766580265829 )
( 0.0625629591747831 0.0298429757745891 0.0064224002863458 0.0424708946778144 -0.0012925814091705 0.1367980178151389 )
( 0.0608598928692244 0.026255596302899 0.0034927723776573 0.0423975638811387 -0.0020199844615663 0.1338281758267576 )
( 0.05987636111899 0.0222598450981096 0.000399607026249 0.0431249544611761 -0.0041312077166047 0.1365554888805379 )
( 0.0594052556473383 0.018114533858181 -0.002444051476279 0.0444280027405452 -0.0074306880372385 0.1451018500499136 )
( 0.0590822672455272 0.0144211974025889 -0.0050912983539743 0.0460927947866834 -0.0124275119035 0.158173452796444 )
( 0.0592808814945373 0.0115097928208787 -0.0077640620611122 0.0482362983999255 -0.0175433408201071 0.1707949369583477 )
( 0.0596337829575432 0.0095115824268493 -0.0101662895504485 0.0501926875048671 -0.0222526499643522 0.1824910021678007 )
( 0.0596904785089515 0.0084736319158755 -0.0121181103778803 0.0515562231443167 -0.0265388400485836 0.1924170098266719 )
( 0.0601643729787761 0.0079637523732347 -0.013536999340499 0.0525811555139165 -0.0301883939290798 0.2005256031098788 )
( 0.0607284575176075 0.0080955459483966 -0.0151736130123685 0.053352339911459 -0.0331252157972895 0.2065134696277451 )
( 0.0614786358473093 0.0087887829054986 -0.0172703483594677 0.0540339500983388 -0.0354848777907133 0.2104121855025081 )
( 0.0627083813713932 0.0099419084287002 -0.0196140735409978 0.0543487809114504 -0.0373660978975434 0.2119093596657053 )
( 0.0821755855765066 0.0144505183178311 0.0446382908665881 0.0494773155841305 0.0260516076949605 0.1958222643682316 )
( 0.0791005011677187 0.0208355080728078 0.0379605012307872 0.0458762133154209 0.017980165354789 0.1984613152154016 )
( 0.0744169442603569 0.0288404967228199 0.0301111795332045 0.043378400105766 0.0079044428214751 0.1932546958984898 )
( 0.0714806994416017 0.0332622796896562 0.0222727386025595 0.04288537189659 0.0011240021822434 0.179197807690201 )
( 0.0688429632397377 0.0342737379928592 0.0154964243833537 0.0422623999232228 -0.0020668795596086 0.1623598531493811 )
( 0.065842452539936 0.0331856395169343 0.0109179307106271 0.0415100842986184 -0.0032844185582574 0.1486949217546409 )
( 0.0629010738585286 0.030391807169978 0.0080107792017757 0.0405718345102583 -0.0037667570265801 0.1403368612042355 )
( 0.0604783530216399 0.0267411018887837 0.0062241209263371 0.0403588451861412 -0.0038180990513909 0.1385252819273806 )
( 0.0583387408602259 0.0225563634398512 0.0050225218845324 0.0409683735990828 -0.0048281782164799 0.1435674179858887 )
( 0.057086745518435 0.018334093671951 0.0034080072552778 0.0424174258728774 -0.0078560171298364 0.1541638868008883 )
( 0.0567957395114324 0.0145510676482088 0.001523102415435 0.0443914822601623 -0.0126997070713415 0.1681779435360635 )
( 0.0570444455345518 0.0115503506152882 -0.0004221182821096 0.0466701462258142 -0.018507396777609 0.1838738327866579 )
( 0.0574003583294577 0.0094233212214565 -0.0027274900087713 0.0490331491115013 -0.0240376820418116 0.1969411010450386 )
( 0.0579440863414991 0.0084031652081067 -0.0051834016777734 0.0514728217208779 -0.0286041394658971 0.20789443575244 )
( 0.0585332494773945 0.0084354995831018 -0.0070016180543921 0.0532851417853886 -0.032316106977935 0.2162789588884921 )
( 0.0593968591379118 0.0089664191594463 -0.0085820924751581 0.0545816201562516 -0.035464474694168 0.2219389741414979 )
( 0.0602027482676255 0.0101041752303359 -0.0108613339214468 0.0555898525119394 -0.0375402501285567 0.2249116695338394 )
( 0.061375075650415 0.0118663603284163 -0.0135528426261113 0.056297529070943 -0.0389689141792349 0.2256357521666432 )
( 0.0628614281204073 0.0141613723729262 -0.0165098418140043 0.0565591716338118 -0.0397960347235462 0.2241974207640464 )
( 0.0889371513142143 0.0149152611048239 0.0375247411564752 0.0527241036460997 0.0220580155662306 0.1948093993803832 )
( 0.0863691349489236 0.020946559454487 0.0297351074722149 0.0482022336369349 0.0129544463071548 0.1903870547050356 )
( 0.0796334420053106 0.0285513968392995 0.0220165154445194 0.0443596128439826 0.0034692496012481 0.1794323376335367 )
( 0.0753742334402286 0.0320077449634984 0.015663276411509 0.0431555099257104 -0.0023134462686518 0.1651568946854998 )
( 0.0707205606906924 0.0318071308572283 0.01149198611886 0.0422110489207822 -0.0046005504920747 0.1516376744977396 )
( 0.0658012136180466 0.0294627211737157 0.0092789661164275 0.0412703369021818 -0.0048993921109074 0.1431132598417837 )
( 0.06188028983404 0.025989488442079 0.0086756536805687 0.0405088412364239 -0.0048338014223544 0.1412957659787193 )
( 0.0590025097752512 0.0220494438180987 0.0088127774317962 0.0406237082132621 -0.0055101302029963 0.1466158331691462 )
( 0.0569007534841071 0.0179960433702077 0.0087487128139628 0.0415887060102299 -0.0077284260497166 0.1580593956731573 )
( 0.0557676035620327 0.0141985781675665 0.0082171595513533 0.0432924683440569 -0.0121867460756571 0.1735956284954061 )
( 0.0555772570580201 0.0111952275847662 0.0064218957560277 0.0458497578266964 -0.0179064267879214 0.1899435320218291 )
( 0.0558536822654374 0.0091945422087824 0.0040569596317717 0.0487420302739261 -0.0237764266187544 0.2051015047985277 )
( 0.0563749179850505 0.0082742932348245 0.0016831598777108 0.051403887440278 -0.0292808705054923 0.2176103668112747 )
( 0.0572434278087831 0.0084713646853351 -0.0008939675408714 0.0540028443516204 -0.0335971035740779 0.2266445448277774 )
( 0.0583123806114899 0.0094953770338611 -0.0031584479922167 0.055992595191449 -0.0367701310106241 0.2322051844415066 )
( 0.0592682568128662 0.0111288430689329 -0.0054140485406122 0.057558317698161 -0.0391910014057146 0.2353360909663647 )
( 0.0601693578522964 0.0133748852767837 -0.0081162308087224 0.0588051746507924 -0.0404642547045222 0.236026192933023 )
( 0.061513037982384 0.0161774786720666 -0.0111035182503772 0.0595568240067447 -0.0409241966384864 0.2342653471882253 )
( 0.0633199924484964 0.0195520856473877 -0.0144657571531459 0.0597342545628189 -0.0408174365291388 0.2306177808280108 )
( 0.0991365030376947 0.0135566726605174 0.0309568888450339 0.0562974411946156 0.017408430366078 0.1916113856015699 )
( 0.0942013692558012 0.019427657230731 0.0232989203863511 0.0511488487846887 0.0082638112256666 0.1824444247680433 )
( 0.0851070255133487 0.0264566590568902 0.0161308320753217 0.0467784112811699 -0.0001158138247419 0.1690544948029385 )
( 0.0784762172205507 0.0286579116338893 0.0118640256942828 0.0450782419681567 -0.0044254430962717 0.1556341540820769 )
( 0.0712725848212859 0.0271976175352832 0.0101503710270754 0.0435455174321714 -0.0055830857768383 0.1453944712320894 )
( 0.0656753483199579 0.0245091604373036 0.0099145112688898 0.0425130542818074 -0.005411571791135 0.1424023957871939 )
( 0.0615270254353977 0.0210256033197781 0.0113914981049288 0.0421059185138853 -0.0058028755235675 0.1467677090504129 )
( 0.0581087741336913 0.0172123635625277 0.0129370171201391 0.0424077800056288 -0.0072200851896976 0.1578727649206782 )
( 0.0559107064292341 0.0136121813805134 0.0134366616889716 0.0436021557930847 -0.0107128926012896 0.1738481084929206 )
( 0.0547945291688183 0.0106212308322883 0.0131112261130896 0.0454491513456979 -0.0165773668871777 0.1915863470922461 )
( 0.0545928378977153 0.0086201466481234 0.0111458328140011 0.0482370126778415 -0.0226908781653712 0.2080896439876321 )
( 0.0551182958020226 0.0077736013461099 0.0081424585439201 0.0515717580641646 -0.0286445409945864 0.2220449799224203 )
( 0.0559455141720899 0.0082012288239513 0.0052505507150196 0.0545551368513139 -0.0337297587543094 0.23223981413493 )
( 0.0569185755852199 0.0095497404894323 0.0022801715983025 0.0573000935697767 -0.0373801036806798 0.238736097586036 )
( 0.058078097836693 0.011576259451254 -0.0006442773790573 0.0595681711366042 -0.0399182469472873 0.2418894801844549 )
( 0.0591415053198039 0.0142796222628667 -0.003347435266086 0.0614724815610345 -0.0415533728278466 0.2430749004143835 )
( 0.0604084979302126 0.0175708635375072 -0.0062193981194201 0.062946754413992 -0.0422943739584836 0.2422355892478794 )
( 0.0620895572139973 0.0213915580365896 -0.0096536025098009 0.0637996583506591 -0.042076115681721 0.2389206852192378 )
( 0.0640904286919538 0.0257348084169152 -0.0137102347511759 0.063970236161478 -0.0411959383390021 0.2339192422489255 )
( 0.1096680331974835 0.0109376589907074 0.0254362937572651 0.0603965208418711 0.0129967658758353 0.1866204660959044 )
( 0.1014216724700066 0.0168418628232661 0.0186208576715255 0.0553076676105651 0.0041363977665055 0.1750477664682033 )
( 0.0888248584821595 0.0228274618979438 0.0127947688454858 0.0503593277081741 -0.0030164796994057 0.1607763944298082 )
( 0.0798275644536016 0.023769461954458 0.0104188251777626 0.0480196094234962 -0.0055985068519547 0.1493334527104338 )
( 0.0713022203854321 0.0217042869524779 0.010720993477885 0.0463663824545017 -0.0057846080235034 0.1433907730694907 )
( 0.0647958796277281 0.0189358262758711 0.0125375449456722 0.0451941279991629 -0.0056464649804488 0.1450042233667595 )
( 0.0604581408119413 0.0159707764307005 0.015106741355907 0.0445427065331681 -0.0065504665334783 0.1540244628603629 )
( 0.0570800744634627 0.0127458160142018 0.0170009395488166 0.0449041595099501 -0.0090181861465626 0.1693704720059614 )
( 0.0549113444201282 0.0098345424446196 0.0177901361554898 0.0460923890363029 -0.0140338370857772 0.1875866746261382 )
( 0.0538755882875082 0.0078034996734205 0.0171241252235828 0.0482668779414388 -0.0204459081806915 0.2056920576016413 )
( 0.0536903063486668 0.0069746347155887 0.0147697448219003 0.0515114336163804 -0.0266697421309894 0.2217060832980635 )
( 0.0544938249185004 0.0073449536203373 0.0115926425819693 0.055038506370371 -0.0327147159934077 0.2343730797699567 )
( 0.0556497341353636 0.0089720743876228 0.0079776677367353 0.0583074415113419 -0.0373300300042698 0.2421627160264142 )
( 0.0566752669797602 0.0115059794346477 0.0043725528049974 0.0613790953148888 -0.0403719395410335 0.2463487074326659 )
( 0.0579496317145323 0.0146893398764858 0.0010970022171701 0.0641115060022162 -0.0422280250141414 0.2480030304238334 )
( 0.0593393409670588 0.0183778369595808 -0.0018994426951026 0.0664291367795927 -0.0431375436440743 0.2477763249964505 )
( 0.0607603227437259 0.0224778059451709 -0.0052104378199802 0.0680915946493684 -0.0433621260111649 0.245535175923333 )
( 0.0627416981941595 0.0272104338115533 -0.0092123309445559 0.069009260418693 -0.0426996505999519 0.2412895692694105 )
( 0.0651466932928256 0.0324827813299314 -0.0136248409720169 0.0691025792953431 -0.041098947126827 0.2353803173264657 )
( 0.119130802470759 0.0071285513179791 0.0211715039697197 0.0658483790150245 0.0094383923821029 0.181459879287707 )
( 0.1066170088526549 0.0126727054895422 0.0149552342886593 0.0602551294003263 0.0017323923710883 0.1680923073238905 )
( 0.09018607036018 0.0181906660403712 0.0108505813423729 0.0546810268266654 -0.0044228065775883 0.1544216045944347 )
( 0.07957369837604 0.0187226535158647 0.0103548356241926 0.0518877187240411 -0.0061160940921868 0.1457143560658133 )
( 0.0704759133274605 0.0168717731243815 0.0125592689516635 0.0498430712411656 -0.0059910359239411 0.1437950245726476 )
( 0.0636587824941609 0.0141872852765337 0.0159896107658829 0.0482007223075069 -0.0062499704972437 0.149501861946185 )
( 0.0592137422663045 0.0115126340886889 0.0189681896949128 0.0473058195945821 -0.0080112304730666 0.1620527683194871 )
( 0.0559117826835971 0.0087948455656148 0.0209322793228578 0.0477813883104219 -0.0115801896604632 0.1802301723220294 )
( 0.0539384899556642 0.006624976080313 0.0218138864968043 0.0492250216687514 -0.0175233412616021 0.1999161485039671 )
( 0.0532473762306746 0.0056142051814185 0.0209489159847486 0.0514353593031729 -0.0243168655415952 0.2175251395975982 )
( 0.0532955483614781 0.0060691085542444 0.0178275676360308 0.0550934989428779 -0.030549606104138 0.2322480121168185 )
( 0.0540848851883238 0.0077102310023462 0.0140490623088088 0.0589256605384177 -0.0362065556796096 0.243338483122212 )
( 0.0553203505432183 0.010488127594752 0.010030347799823 0.062759873095418 -0.0403941464144825 0.2496944242486735 )
( 0.0565887305429997 0.0141554607427349 0.0059263226339961 0.0664464575889627 -0.0429197410238332 0.2523680796544665 )
( 0.0580990636628659 0.01829231285697 0.0023968974729103 0.0694807807009533 -0.0442532544684808 0.2526159680995687 )
( 0.0596701457561492 0.0228345671251006 -0.0011734013396726 0.0720485216993482 -0.0446269428148061 0.2509139941482868 )
( 0.061302767871057 0.0278262604647484 -0.0051098969313538 0.0741355232857259 -0.0442816613750797 0.2476517525413468 )