/*--------------------------------*- C++ -*----------------------------------*\
| =========                 |                                                 |
| \\      /  F ield         | OpenFOAM: The Open Source CFD Toolbox           |
|  \\    /   O peration     | Version:  2112                                  |
|   \\  /    A nd           | Website:  www.openfoam.com                      |
|    \\/     M anipulation  |                                                 |
\*---------------------------------------------------------------------------*/
FoamFile
{
    version     2.0;
    format      ascii;
    arch        "LSB;label=32;scalar=64";
    class       volVectorField;
    location    "0.0014";
    object      U_LES;
}
// * * * * * * * * * * * * * * * * * * * * * * * * * * * * * * * * * * * * * // 
 
dimensions      [0 1 -1 0 0 0 0];
 
internalField   nonuniform List<vector> 
13597
(
( 17.331188684276007 1.8230537765812689 -0.0086860015850958 )
( 17.331593116912096 1.8745279222241344 -0.0080230187911705 )
( 17.345532703421526 1.9789510216156707 -0.0057928871769566 )
( 17.370632887861145 2.112252319367504 -0.0018927387489322 )
( 17.393612470422692 2.2238338537359668 0.0025627056095184 )
( 17.410374237326547 2.3129539446987617 0.0073525558932363 )
( 17.43067131716381 2.3995081967393577 0.0134860518227144 )
( 17.453822780227174 2.4902680184345187 0.0209325279443509 )
( 17.4798376134512 2.5788692637989032 0.029343422615384 )
( 17.507366924851183 2.6654125464538825 0.0383421700235163 )
( 17.5358922945668 2.759250610594062 0.0491011430777222 )
( 17.570094337476196 2.850742114548396 0.060371367757589 )
( 17.60608232067995 2.938609686387492 0.0715488836345359 )
( 17.641226519699 3.030181289031676 0.0839471267194918 )
( 17.67654581303633 3.123277325582857 0.0969485138421395 )
( 17.713638137429122 3.2146673941459523 0.1096964048718757 )
( 17.753953560895198 3.30098245734488 0.120974143169513 )
( 17.79526006545662 3.386353425820272 0.132079685625205 )
( 17.836901744277696 3.4748843644100424 0.1445373348346904 )
( 17.193181024845703 1.857961188490304 -0.0145552066398958 )
( 17.175148765939266 1.923871011842633 -0.0146407289824503 )
( 17.16602168948005 2.061018370509705 -0.011326438242539 )
( 17.161051898209458 2.2157090636803227 -0.0046646781700137 )
( 17.15320442390667 2.3322821976573183 0.0022857493639202 )
( 17.142985123844426 2.4368493305587324 0.0102181172159061 )
( 17.137226125207047 2.53983211231849 0.0196724417485646 )
( 17.1313949762554 2.645435102016277 0.030923567019258 )
( 17.12868650495016 2.7497995167997176 0.0435822174393736 )
( 17.126226551437714 2.851361673068967 0.056883936212817 )
( 17.12195285358148 2.961416991066601 0.0724788450620168 )
( 17.117371483662282 3.075608425972787 0.0887673274174678 )
( 17.1114112877135 3.188271532548381 0.1057820785623952 )
( 17.108638711539147 3.303332216549525 0.1229160778894729 )
( 17.107970908895712 3.415273962658365 0.1391599254066311 )
( 17.10952301904115 3.5207843053253502 0.1543902220148666 )
( 17.11287965019625 3.617536305728884 0.1673989791648241 )
( 17.115778790561393 3.715813640440925 0.180073332740618 )
( 17.124014641167502 3.813595526356196 0.1927095072641484 )
( 17.059272088844494 1.881219625992567 -0.0146614633925899 )
( 17.020979301027396 1.9573872455398265 -0.012383802995072 )
( 16.986102303494302 2.1138071796519275 -0.0056002961290955 )
( 16.94963968160111 2.2792112963983744 0.0050761306842461 )
( 16.911377954842006 2.3981174807264662 0.016539454769364 )
( 16.877133623738377 2.511948763229968 0.0292356881104018 )
( 16.846136707596646 2.626389720780254 0.04296790299149 )
( 16.8088442265381 2.739025768612026 0.0583197419701858 )
( 16.774270438566493 2.8534132383972235 0.0751810842167455 )
( 16.741908191908248 2.975170500035832 0.0923656488091414 )
( 16.706544839436287 3.10097873035696 0.1104178311726358 )
( 16.670615654699393 3.2338619975058926 0.1289551033630787 )
( 16.636074564949723 3.369719928149072 0.1474502670101276 )
( 16.606236734955814 3.4996606698554187 0.1639833941160211 )
( 16.581443392402196 3.618636891754441 0.177591265259503 )
( 16.56116989548477 3.7245115890062888 0.1891178999796473 )
( 16.540986651375373 3.8196443814927417 0.1982847867123729 )
( 16.521079464436735 3.915059372411826 0.2062368723330012 )
( 16.509948285493746 4.014869172679542 0.2132142750589437 )
( 16.929393277523026 1.8905684934279912 -0.0072399298624573 )
( 16.87201304054759 1.9742138109569305 -0.0006648688830989 )
( 16.812962157547293 2.1375154097603155 0.0102884919985524 )
( 16.747224116472367 2.305715283453561 0.0253363071966403 )
( 16.680213923230287 2.4276480794334403 0.0412962491108548 )
( 16.6187343665452 2.54393559282982 0.0574526686960688 )
( 16.55531055400013 2.664519014723436 0.0746636974712134 )
( 16.4881905729646 2.7853908417359445 0.092191956752634 )
( 16.427569865144353 2.9097886514896616 0.1098926269498965 )
( 16.370165688637186 3.0432552829470376 0.1268519730605496 )
( 16.308947319851928 3.183644954977025 0.1433495213592142 )
( 16.253443031147274 3.3298532151049307 0.159098451366199 )
( 16.204803078328695 3.4761838603033284 0.1721135384911455 )
( 16.156669172527835 3.615590779462864 0.1826144159712053 )
( 16.11216035338413 3.735912308711713 0.1899306879519564 )
( 16.07346713582514 3.8395553111679175 0.1945298996817679 )
( 16.0365826881863 3.9337401870714377 0.1969935978796046 )
( 15.99831588554539 4.029220883748785 0.1978053795269092 )
( 15.964232565588564 4.136217218953582 0.1979143217415019 )
( 16.80819708058966 1.8867560731631992 0.005890811869194 )
( 16.736228700997117 1.9776377185212877 0.0168253276050823 )
( 16.650771715867233 2.145709225859242 0.031845231006231 )
( 16.55599985972141 2.309376965265238 0.0493713430657255 )
( 16.465123480318468 2.4298467265132984 0.0671260521900475 )
( 16.378068777337266 2.5473979164701674 0.0843212605953618 )
( 16.286401827588758 2.6718720549471784 0.101428250817785 )
( 16.194958703064188 2.798466103484065 0.1182704436145319 )
( 16.111860895560298 2.9275311080641044 0.133604108353931 )
( 16.029855709731763 3.066914742009308 0.1471173399521772 )
( 15.946202472595022 3.220970760291701 0.1593178865348468 )
( 15.868771211203653 3.3799253830815914 0.1687743495536137 )
( 15.796726650399128 3.5339418503668463 0.1746917858986794 )
( 15.72602170460047 3.6773951075562 0.1779828325667938 )
( 15.658191391305929 3.795243722093876 0.1784433893717588 )
( 15.593940480892693 3.901547101239995 0.1771723391703132 )
( 15.533007193671404 4.00339330945324 0.1744407151229052 )
( 15.473386774660316 4.105683582354334 0.1703632463453165 )
( 15.414179441460456 4.221502458739264 0.1653917042706241 )
( 16.697948882742562 1.868405467321267 0.0227157463490501 )
( 16.60929697851225 1.9648224025216163 0.0362988952696988 )
( 16.494737011868338 2.1382697880050365 0.0540233706279682 )
( 16.37488321877937 2.2965832289172448 0.0720153222539751 )
( 16.26351187463982 2.414498185303978 0.0889829990413222 )
( 16.155255239867092 2.5334730985752443 0.1052620318151503 )
( 16.044928757258194 2.6575387133947257 0.1202033991992055 )
( 15.931594049135615 2.7851332511037024 0.1342909064139668 )
( 15.819262247923977 2.918800275492233 0.1459077961689447 )
( 15.708838187855324 3.070322630007817 0.154824868317176 )
( 15.604092413402304 3.2330482330849697 0.1609494622171324 )
( 15.50056569398291 3.3969657313735047 0.1634507636295356 )
( 15.402114806052433 3.55694915647758 0.1630837555251904 )
( 15.30923168036599 3.7019825676716858 0.1603303943303111 )
( 15.216740122739568 3.822536917758719 0.1557592532331109 )
( 15.131176548823372 3.929170557966163 0.1504467418483145 )
( 15.04746741972771 4.032489935574192 0.1444659351436348 )
( 14.963531303785295 4.1376411942129465 0.1381645826825429 )
( 14.87957025182255 4.257817017879172 0.1314152356743277 )
( 16.590525422893673 1.839085311347027 0.041291723834318 )
( 16.484276907864214 1.9412589664375544 0.0553011782545106 )
( 16.344860033523663 2.116046454787279 0.0720364777211974 )
( 16.203463050770974 2.266559936498113 0.0890964937400349 )
( 16.073405925431203 2.381129217988318 0.1045812088822471 )
( 15.942059885648208 2.4977774450813404 0.119026460220884 )
( 15.810194773303827 2.622901876824533 0.1316175891270642 )
( 15.676137442869145 2.754585923474452 0.1412579472318527 )
( 15.538614670574969 2.8924358992654025 0.1476671474518708 )
( 15.407674960590429 3.0505261148336773 0.1513462338039658 )
( 15.277941201350004 3.219531448340874 0.151817703685778 )
( 15.145389019988375 3.389769765997877 0.1491911158107858 )
( 15.022196423680612 3.550064345607174 0.1445031941270477 )
( 14.905182583626404 3.6929413633199353 0.138451296920638 )
( 14.788022207076317 3.8181503777655377 0.1315966223178627 )
( 14.678085893788166 3.923162893588567 0.1247363255278295 )
( 14.571738863252133 4.024737140923825 0.1180639720392066 )
( 14.462927490368571 4.134905416046852 0.1111558085985516 )
( 14.354251521832582 4.258986924463876 0.1039765212250249 )
( 16.490265776872064 1.803363932424114 0.0577856026619339 )
( 16.365789640085804 1.9051368797547776 0.0709847933855786 )
( 16.203938995067855 2.07610807894258 0.0859429280792468 )
( 16.041671525378728 2.220191764998376 0.1009771268553845 )
( 15.890774905301758 2.3325896868909752 0.1142890900300397 )
( 15.738333251881278 2.45045562721635 0.1260876791745371 )
( 15.58352443719942 2.5796046096856933 0.1344967828103571 )
( 15.429221405073468 2.7117033566591986 0.1397436510757742 )
( 15.268389041570986 2.851655054486104 0.1418777396210468 )
( 15.11368832563578 3.0168430923877816 0.141035145192732 )
( 14.956241940154882 3.190434831026812 0.1374243065539725 )
( 14.799306597408624 3.3652001103877005 0.1320386616213425 )
( 14.651356101266316 3.527147200372585 0.1255511342129517 )
( 14.50566557454398 3.6642348555699575 0.118000848040231 )
( 14.369785539788271 3.7831160878923447 0.1105657255865646 )
( 14.237496147920062 3.888346412090361 0.1034573600834017 )
( 14.107464448631106 3.993784856019105 0.0965795594510114 )
( 13.976759277889716 4.11018389927216 0.0894993024350213 )
( 13.846733853134827 4.239556121861817 0.0823380627477887 )
( 16.395561783846983 1.755598985511857 0.0713135813997835 )
( 16.2511672427774 1.8521224853693576 0.0827619426223686 )
( 16.066705099829715 2.019228227180325 0.0958290487943461 )
( 15.886583909855352 2.158967733769653 0.1086310243203228 )
( 15.71295116869408 2.273970399783456 0.1190826250006787 )
( 15.542753333582857 2.3923812304551166 0.127227036480516 )
( 15.370065428992923 2.5198501050318334 0.1315702934737228 )
( 15.195948639295525 2.6586895656952665 0.1334436270207571 )
( 15.015114479494493 2.8058365034869763 0.1324478491469118 )
( 14.827526936489482 2.9706296745708034 0.1281737206099727 )
( 14.644140624433817 3.147149749509083 0.1221741806506335 )
( 14.468035315241297 3.321566402239206 0.1154853417106452 )
( 14.292202967710008 3.4833514581862084 0.1079537089252393 )
( 14.122354420536126 3.619397713271114 0.1000585983674978 )
( 13.96904809496479 3.733638727175524 0.0928132868543724 )
( 13.81576850640248 3.840908494198264 0.0854932606332734 )
( 13.66291097888744 3.948248079359237 0.0784908337847821 )
( 13.51024591373842 4.067063193352863 0.0720475269310629 )
( 13.356308778119644 4.20149071047745 0.0657861880301422 )
( 16.299602703834083 1.704132256717939 0.0818428111964329 )
( 16.13436876623328 1.8021556751871024 0.0912447894180296 )
( 15.92994301647646 1.963630310075735 0.1018285867328827 )
( 15.734626918199746 2.094159966202243 0.1116803921453782 )
( 15.54456364898946 2.212146272319317 0.1190465148969513 )
( 15.35700312211716 2.327208838988914 0.1234082813517019 )
( 15.163355501259463 2.4488387267822063 0.1244759895133904 )
( 14.963246963271956 2.589554840885861 0.1231711205785469 )
( 14.76412553315498 2.7386290416225108 0.1198402787159762 )
( 14.556084318096298 2.905021572497131 0.1143670637725738 )
( 14.349692938150534 3.0887777747279594 0.1074358017891638 )
( 14.151169207721717 3.266831935321993 0.1001776675058238 )
( 13.954259138640738 3.423676203830066 0.0924880711198755 )
( 13.767698420065614 3.559179187935656 0.084957491263288 )
( 13.591897374741608 3.6733793420370575 0.0779638604054528 )
( 13.41532645631154 3.778759592895389 0.0712192452077612 )
( 13.237134207873105 3.8856696132505406 0.0649350238785878 )
( 13.061298476089767 4.005494773509098 0.0588262078607854 )
( 12.886246296330675 4.146224055806191 0.0523863346435786 )
( 16.206601753519095 1.6529562127206112 0.0883641942583473 )
( 16.025542670716977 1.7525573089050623 0.0958859243274438 )
( 15.798213169613575 1.9058275611975923 0.1042840031745694 )
( 15.590050915988927 2.026931150468162 0.1103344447606625 )
( 15.385923813200067 2.141196551135885 0.1144708335424011 )
( 15.177608548184065 2.254557322263963 0.1160057552703145 )
( 14.964908671792262 2.371781650543336 0.1145418648309753 )
( 14.747316873763786 2.506623272914005 0.111346112990782 )
( 14.526945936955313 2.661004825196428 0.1069029743473764 )
( 14.303047806980809 2.831736223091061 0.1013384366033345 )
( 14.07599164191867 3.0155775693151448 0.094057095913081 )
( 13.849876221119152 3.199412710518991 0.0865351553905294 )
( 13.638313963011946 3.353488528549264 0.0794781233053244 )
( 13.43550591445434 3.487568867767481 0.0725149637431841 )
( 13.232829799261571 3.602573840629475 0.0659769308891083 )
( 13.030181313381195 3.705439420876091 0.0594859418557863 )
( 12.829298146741811 3.813366769970997 0.0530120263899737 )
( 12.635299960950729 3.93680346546582 0.0462825459317924 )
( 12.439644779774246 4.085167928538922 0.0392892843659931 )
( 16.113673672815658 1.5958333407885823 0.0917384647408162 )
( 15.915862986629929 1.6949749333117945 0.0972229542195866 )
( 15.66977025601911 1.8436444488378945 0.1031337767416765 )
( 15.4503046289041 1.9554079716895512 0.1062503334982597 )
( 15.231135867635594 2.061129225894978 0.1077114521448046 )
( 15.004701368475438 2.174426370239968 0.1067840094127455 )
( 14.779763381975078 2.2970351071302253 0.1041707660896864 )
( 14.545844330187345 2.4330100015977303 0.1003053482948096 )
( 14.306826837234931 2.589804074679173 0.0949742745912484 )
( 14.0639088430631 2.759222915798043 0.0888070489988927 )
( 13.817196802102949 2.9383992807808994 0.0819525488664912 )
( 13.57035263252745 3.1167033501913 0.0751974480954579 )
( 13.336066815393842 3.273327209322148 0.0683862987454381 )
( 13.110009835061254 3.412637474502191 0.0614175059591915 )
( 12.882645834565071 3.5264180051396687 0.0547524076856293 )
( 12.661116652254742 3.625083506038459 0.0479940391143172 )
( 12.445783303791844 3.73399642465078 0.0411118668838853 )
( 12.233473870076988 3.8670847504655783 0.034272546519112 )
( 12.016360807341194 4.025718084221774 0.0282158782713199 )
( 16.02034181907897 1.5287921143420151 0.0923956923783065 )
( 15.806217161007256 1.6270251547182906 0.095279638368431 )
( 15.550154610080146 1.7742282149997464 0.0984600196524684 )
( 15.317037772656128 1.8838311506778065 0.1000584253577878 )
( 15.08529526644272 1.9898034337689627 0.1001392444106191 )
( 14.846567323177911 2.103120450169461 0.097660858266304 )
( 14.607320584863425 2.2261197207908183 0.0939066470245246 )
( 14.35479827340284 2.359206823432611 0.0893348581780011 )
( 14.097315353179638 2.510199033931213 0.0838379447187976 )
( 13.839087495465709 2.6814080632137145 0.078096441340202 )
( 13.571201707234078 2.8654155012564466 0.0716432242681027 )
( 13.305895406686997 3.038787387495334 0.065197264469412 )
( 13.04606019133261 3.19359476932326 0.0586128646766914 )
( 12.7913867972011 3.330809534835727 0.0514045859680713 )
( 12.549790248614862 3.4377025677832926 0.0441563699037935 )
( 12.318543988044487 3.5373127632778405 0.0376024042258184 )
( 12.085922000782336 3.6523804176478185 0.0315218595772923 )
( 11.849595278632076 3.7924812606728144 0.0258581041648429 )
( 11.602684967442524 3.965265706553994 0.02157443958433 )
( 15.930692848754932 1.455135021038597 0.0901126715521979 )
( 15.707703059802247 1.5536146358098812 0.0908910525366639 )
( 15.438522144161617 1.6991341221839336 0.0918392985747551 )
( 15.192726838143075 1.8086013594962949 0.0916754129254263 )
( 14.947632797436976 1.9152255129180695 0.090599297379815 )
( 14.700395355203106 2.0238315203089297 0.0877485437890439 )
( 14.447681594734922 2.1442998078716973 0.0838027755126817 )
( 14.185925889574069 2.2769900748655973 0.0794617190004918 )
( 13.910511039603648 2.4237840910140003 0.0744848354392768 )
( 13.630282829539476 2.5948613903951627 0.0689939188288979 )
( 13.34154073293451 2.780928075069235 0.0623052263902159 )
( 13.051669586810045 2.9582197442289253 0.0557962942832822 )
( 12.770435633709797 3.11400437144674 0.0496476632874286 )
( 12.50068097411998 3.2409917897737666 0.0425639592566034 )
( 12.245255696248948 3.3429738522289845 0.0356771882122485 )
( 11.99364514884485 3.449965388785562 0.0298202606222092 )
( 11.73811658032847 3.577757248735325 0.0244411987506603 )
( 11.471685332052497 3.720264037828204 0.0203476014382265 )
( 11.185495827068614 3.898302640555828 0.0176216845870685 )
( 15.845430976818198 1.3840470380909875 0.0854525762088783 )
( 15.611288441134208 1.4831214156940633 0.0851483558700889 )
( 15.321757354261708 1.6274094965246195 0.0845313465361688 )
( 15.066777830406467 1.7295831786067168 0.0824596137528794 )
( 14.815564201848591 1.832168764891864 0.0805507625638073 )
( 14.56248895381595 1.939362543322544 0.0775263414839977 )
( 14.296826832094188 2.056466928116086 0.0737798366621596 )
( 14.020094007492393 2.190250139262585 0.0701533218644108 )
( 13.73300106705724 2.335615448964643 0.0658888424406525 )
( 13.433946349989212 2.501800911768456 0.0603151536792038 )
( 13.120791495294764 2.6880901262451697 0.0535365338864085 )
( 12.80563107525292 2.864694660077508 0.0475162112936196 )
( 12.503086412367516 3.021667314556782 0.0416738175341788 )
( 12.22386249603629 3.14491510344511 0.0348459118330995 )
( 11.955351084026898 3.2468245349602185 0.0289393193430901 )
( 11.681358741720569 3.3586093798513343 0.0238175699341577 )
( 11.39458110792378 3.4919052940013717 0.0194061239993978 )
( 11.091180329074176 3.6463706284984543 0.0165401541547793 )
( 10.779823588839438 3.8450242420631655 0.0132857754283764 )
( 15.763033868880129 1.316122333780828 0.0787094830610131 )
( 15.518205497649802 1.4144196238797977 0.0765772343825955 )
( 15.216261040927412 1.5550161503843616 0.0752506791038729 )
( 14.952591670363947 1.6480176097385284 0.0727811369269242 )
( 14.696275301647564 1.7423300798920716 0.0706341979371187 )
( 14.435187042056077 1.8554056236762668 0.0683749518487348 )
( 14.158910990949012 1.967579637759627 0.0651765540030769 )
( 13.864512542019993 2.0928782182465056 0.0618191764037434 )
( 13.56027500469412 2.242248977911564 0.0580659264537167 )
( 13.243730470323309 2.4044249279481997 0.0524782054654227 )
( 12.90350459138346 2.5935246097424915 0.0463434940695798 )
( 12.562481597720796 2.7736672963900637 0.0405031559221238 )
( 12.25059320897065 2.9220358852503194 0.0346069921993732 )
( 11.964678210265792 3.0419111622232653 0.0292687654534547 )
( 11.679273068140576 3.148919011079155 0.024023429824424 )
( 11.3797596691944 3.2651036456799405 0.0191299746756168 )
( 11.057837852725166 3.4016869306337005 0.0166923667936331 )
( 10.720227994117812 3.574074902024771 0.0129437042434264 )
( 10.408983121508331 3.816687089262176 0.0059227461658907 )
( 15.685101007005814 1.2497454649703317 0.0710012728107837 )
( 15.427524276785189 1.3429737056315758 0.0664727545481262 )
( 15.118798027436537 1.481554078867732 0.0652622961722571 )
( 14.853967825929036 1.5710074998226649 0.0632943191131468 )
( 14.5893641268973 1.6611564827665286 0.0615238855715841 )
( 14.313374005699792 1.7708118094191403 0.06008425959058 )
( 14.025631680201712 1.875824286302427 0.0573560309130027 )
( 13.725696186568191 1.9985401411080348 0.0544930825949121 )
( 13.40322645767434 2.1491198439348933 0.0509290612060208 )
( 13.062794650180964 2.30425992132543 0.0453660548328879 )
( 12.71095171263122 2.4873962208898703 0.0402853907537742 )
( 12.351546433172956 2.679260619543575 0.035132282461243 )
( 12.02659823911669 2.8250171534375563 0.0298916357177479 )
( 11.724009209164857 2.937513418524038 0.0253161820511228 )
( 11.411292610683368 3.048839473517603 0.0197300243580044 )
( 11.076069923712446 3.1655183072376074 0.0152713991659377 )
( 10.724151795280129 3.313241405799354 0.0120532491916118 )
( 10.378708541382824 3.513972851876868 0.0051921965152911 )
( 10.085929880813737 3.8085757894978505 -0.0031625443585448 )
( 15.60762538083194 1.1833451989264 0.0620735689415262 )
( 15.342576236986783 1.2715350455863417 0.0567793561552059 )
( 15.027825595885917 1.40378758425665 0.0554072969457648 )
( 14.76323209827198 1.4896181350084396 0.0538519336046211 )
( 14.492443664875042 1.5825238089876723 0.05308365918071 )
( 14.203431175495725 1.6873739965268373 0.0524632989971392 )
( 13.907316390299057 1.7813574482483816 0.0497790771930879 )
( 13.595730702779756 1.9056041860969064 0.0472798915070886 )
( 13.254737949042116 2.057415021948354 0.0445159969003874 )
( 12.896445297462709 2.2135431925357385 0.0402379725906989 )
( 12.52541228974649 2.385867400537777 0.0356479179321793 )
( 12.152118046998732 2.5630706155828467 0.0309350223499022 )
( 11.813029326879729 2.711530809806252 0.0262946576493787 )
( 11.484754723987535 2.8302508003863807 0.0214406550059615 )
( 11.14318081312626 2.935690544153223 0.0161175416218463 )
( 10.781482169514971 3.0554921161430024 0.0114708664884226 )
( 10.409361001787389 3.2199148213715976 0.005509938639964 )
( 10.075250866770835 3.4658996876139314 -0.0037512522935895 )
( 9.774982207828415 3.818317430648126 -0.0121859205832004 )
( 15.535424754700804 1.1151256229729782 0.0513878760692368 )
( 15.265961074895216 1.1981252236464386 0.0462241922801614 )
( 14.94281168600942 1.320221909563824 0.0451704705568687 )
( 14.677826166115652 1.4059875231050654 0.0447543774258662 )
( 14.401046448936514 1.4965482398556065 0.0450062939922581 )
( 14.099702882568163 1.5992830820431545 0.045346431165226 )
( 13.80291549071256 1.6938357384895724 0.0433639091222317 )
( 13.47749623144349 1.8079405733222988 0.0409047474190205 )
( 13.115430711199906 1.956915228725058 0.038614279488888 )
( 12.73722265354843 2.1177393828885247 0.0355555282376882 )
( 12.340707724491972 2.2885518772992004 0.0314401487661307 )
( 11.961901625904613 2.452007271742511 0.026451180498256 )
( 11.603631815534822 2.5914509277539444 0.0214229901965247 )
( 11.245974488621767 2.713024657358595 0.0174949130311193 )
( 10.886051368230044 2.823007537953473 0.0136853949736494 )
( 10.5074385589344 2.9567430758307585 0.0081636476920636 )
( 10.125495417749908 3.146287004247573 -0.0005215120126529 )
( 9.79124956017103 3.4322088914361424 -0.0109454948607922 )
( 9.394340354492556 3.7920838353165314 -0.0210189546322482 )
( 15.472449296826706 1.047106821775477 0.040335183645512 )
( 15.193611195576487 1.1201488515163414 0.0348476508147545 )
( 14.86451515395655 1.2357231173329866 0.0346515471612811 )
( 14.596184437134385 1.321289163857436 0.035834323338672 )
( 14.313969086369484 1.4109493328026377 0.0371553193249666 )
( 14.003930577175604 1.5150978265216846 0.0384972663385404 )
( 13.696137379033788 1.6077372768074425 0.0380936798701303 )
( 13.36486962655582 1.7120420915417711 0.036247063092611 )
( 12.992143689616352 1.8517839512653855 0.034186998056064 )
( 12.592213899150156 2.005528004480791 0.0310832186252639 )
( 12.175502924308422 2.180886971769301 0.0265386309088988 )
( 11.783486464858306 2.347373403337589 0.0215251025248873 )
( 11.402126275787989 2.4776271965661296 0.0167026849836647 )
( 11.023480680360828 2.591357535681963 0.0130639807447632 )
( 10.637434111899204 2.718071820373886 0.0102840863421212 )
( 10.243328286998944 2.8669823247386725 0.0044398119733185 )
( 9.86407830094827 3.0823594764873965 -0.0067923048941444 )
( 9.472757455859533 3.3964256257935443 -0.0162952833473342 )
( 8.902401957355577 3.6965033851587217 -0.0264147765664542 )
( 15.410698051488538 0.9750311989617392 0.0285950847413945 )
( 15.130417093168962 1.0464009646507229 0.0239889512856204 )
( 14.8011088953968 1.1550424252114706 0.0248664090544536 )
( 14.523689002155724 1.2308904786561836 0.0270671158050774 )
( 14.234997532891777 1.321695300301628 0.0295675969304279 )
( 13.920132932233823 1.4292695469591776 0.0322417846029318 )
( 13.59986537960268 1.515777691380046 0.0334796963733714 )
( 13.26344660790756 1.61315722241114 0.0325232854702268 )
( 12.872263313328748 1.7489715928331249 0.0309844836028783 )
( 12.454639079184014 1.8989652604804568 0.0275022464240101 )
( 12.022757363675248 2.0689770568911032 0.022191600550309 )
( 11.603032795541903 2.2341767659346936 0.017271495530436 )
( 11.209462708180116 2.3696291685586317 0.0134942096374368 )
( 10.82370544481268 2.4807667029457385 0.009481734519902 )
( 10.412519394986036 2.6138472917118776 0.0049458810179943 )
( 9.995522402014108 2.7795011995636587 -0.0030878571728733 )
( 9.608691165055657 3.0171597195957256 -0.0129290453649927 )
( 9.123499009895934 3.3365424568581386 -0.021430219421678 )
( 8.289110334549362 3.517341692727756 -0.0311231255778158 )
( 15.352316091874698 0.902310356127867 0.0162910127094951 )
( 15.072558551492538 0.9748079558555396 0.0137382377860201 )
( 14.742015851967176 1.079944874414451 0.0166161450073404 )
( 14.461249518922134 1.1513616786330194 0.0196677972380684 )
( 14.162894579259651 1.2375418252612402 0.0235483450468493 )
( 13.835432756093022 1.3323590659515114 0.0274213118037937 )
( 13.506742906699197 1.4166357258578526 0.0293013860373719 )
( 13.16468654903703 1.5104418543659563 0.0285546484267516 )
( 12.748736457296603 1.642911960229056 0.0270562080670518 )
( 12.31425330938379 1.796945644915486 0.0239578284330905 )
( 11.879627577087676 1.9590876986251335 0.0189089837345692 )
( 11.448025255443651 2.123163882518003 0.0143782464908017 )
( 11.038697850153364 2.2652599678148686 0.0109744967752175 )
( 10.6260976635881 2.373892670608626 0.0071480735014195 )
( 10.202680045931857 2.504751196825055 0.0015566719914038 )
( 9.774009275340724 2.6862625863085228 -0.0084267270294413 )
( 9.329777598388745 2.9480217198349363 -0.0185916249215456 )
( 8.770020095770022 3.261098311686376 -0.0289390600833112 )
( 7.50753047785302 3.221284351849485 -0.0337131694739183 )
( 15.29816738460528 0.8371003165794418 0.0047154488749992 )
( 15.01407821508402 0.9045360953422856 0.0036560391085547 )
( 14.683538272156753 1.0052772680610558 0.0085999537582832 )
( 14.403663475068202 1.07702070465264 0.0131891821528267 )
( 14.09668639484554 1.1557856523729182 0.0183277752469024 )
( 13.763916704808665 1.2379714690628971 0.0231462908929999 )
( 13.427461105413178 1.3252038404142874 0.0260620722240045 )
( 13.068153085581333 1.42351391903436 0.0257573174358836 )
( 12.633107174584127 1.5452576563489278 0.0235060561069417 )
( 12.177508202444892 1.6959743101932063 0.0206085213898013 )
( 11.736541033918623 1.8497420065787515 0.0165073557502368 )
( 11.305437170293075 1.9988938163769656 0.0118281450628526 )
( 10.879424058659604 2.1362928899533142 0.0079442894006466 )
( 10.439094936062183 2.2534528772064366 0.0040895667965776 )
( 9.996437982947942 2.390136123377641 -0.0003725515056532 )
( 9.55282678979177 2.5846215729560487 -0.0091144999768976 )
( 9.031127209347703 2.859908833601758 -0.0211377483912411 )
( 8.266602276618299 3.0932667369115228 -0.0305840052952691 )
( 6.741081748831794 2.8870367592656754 -0.0307283629839413 )
( 15.25062754761556 0.7702526329887838 -0.0060861731211125 )
( 14.963231358520392 0.8355879456090842 -0.0055618341931354 )
( 14.628298445900189 0.9320719427772136 0.0018162860627201 )
( 14.34715574835332 0.9973540386339744 0.0081493209049283 )
( 14.035659958164889 1.0750305996795837 0.0145241829136839 )
( 13.703904666600828 1.160170759484441 0.0194188152577926 )
( 13.36517205644164 1.245799248429028 0.0227063970667034 )
( 12.9842577851728 1.3379880734861196 0.0230910593844827 )
( 12.537236910423823 1.454955556739724 0.0207554688074673 )
( 12.073680010136444 1.5996687533761471 0.0181764127802077 )
( 11.615278649225647 1.7460828961537036 0.0142612091031847 )
( 11.160236578575155 1.8793623826369057 0.0091375692103802 )
( 10.71412227904964 2.003405905043968 0.0040867364676867 )
( 10.258826317705005 2.124413790894476 -0.0014880238995061 )
( 9.802368791190908 2.275463563831387 -0.00635302468577 )
( 9.324841472419328 2.496443830226866 -0.0147035470352058 )
( 8.739209618975373 2.76322237037886 -0.0242044472683214 )
( 7.709392601421511 2.8530880907796203 -0.0286717243061073 )
( 6.0745189905906685 2.568850658557328 -0.0294433092680182 )
( 15.20855062560061 0.7014978796639498 -0.0165323002081919 )
( 14.92349024986172 0.766562342046593 -0.0136718308260434 )
( 14.58212778252583 0.8609110621422861 -0.0039329869199174 )
( 14.29513416485766 0.9198558945771956 0.0041317098751268 )
( 13.977787866841146 0.9920779431343896 0.0110201024433675 )
( 13.642682089469124 1.07675621047846 0.0162147336069649 )
( 13.298660786071652 1.1499041637368306 0.0192864970462924 )
( 12.906262706323488 1.2381543049631971 0.0199517611022523 )
( 12.458884295760996 1.364270249534326 0.0184659195060225 )
( 11.988345745887434 1.50269643403831 0.0155684688069545 )
( 11.507412295917458 1.6461339913144304 0.0104499727971669 )
( 11.02808183121424 1.7658207009837832 0.0054990293011517 )
( 10.562741687861232 1.8770226622395685 -0.0002188507474105 )
( 10.082536734659744 1.998423366809332 -0.0068378211270401 )
( 9.611325359048708 2.1569642982520825 -0.0127768365071989 )
( 9.078320882441304 2.3923714884592067 -0.0221871963518528 )
( 8.41079291843709 2.629180558783766 -0.0301903896154354 )
( 7.233754497507755 2.6111494952604537 -0.0300491352905981 )
( 5.451777337088308 2.2426650509975783 -0.0281170280198727 )
( 15.172497948514666 0.6423271151925992 -0.0252936201403612 )
( 14.88741888591379 0.7018274008690701 -0.020338790313435 )
( 14.541886752908404 0.788459574693443 -0.009289445788865 )
( 14.24966119653556 0.8457256397318896 -0.0005153841951519 )
( 13.927802467584808 0.9099838067810998 0.0067970326217319 )
( 13.591408718443969 0.9841344633603386 0.0131410239223183 )
( 13.233840475408472 1.0501105458222864 0.0163575275581096 )
( 12.832344308877174 1.1447545682868483 0.017524730184 )