/*--------------------------------*- C++ -*----------------------------------*\
| =========                 |                                                 |
| \\      /  F ield         | OpenFOAM: The Open Source CFD Toolbox           |
|  \\    /   O peration     | Version:  2112                                  |
|   \\  /    A nd           | Website:  www.openfoam.com                      |
|    \\/     M anipulation  |                                                 |
\*---------------------------------------------------------------------------*/
FoamFile
{
    version     2.0;
    format      ascii;
    arch        "LSB;label=32;scalar=64";
    class       volVectorField;
    location    "0.0027";
    object      U_LES;
}
// * * * * * * * * * * * * * * * * * * * * * * * * * * * * * * * * * * * * * // 
 
dimensions      [0 1 -1 0 0 0 0];
 
internalField   nonuniform List<vector> 
13597
(
( 17.097784547304105 1.5605256006309596 -0.0363322587305388 )
( 17.096411988684917 1.6008405713980258 -0.0344882466672017 )
( 17.106605944293836 1.6851065537517325 -0.0305445767446519 )
( 17.126097118688598 1.7951339280718206 -0.0245936769504774 )
( 17.14376548839086 1.888812747804588 -0.0172619540465925 )
( 17.155189934862936 1.9646249009314272 -0.0097170316645007 )
( 17.169457513716683 2.0402023562967475 -0.0024038777782777 )
( 17.186848052205388 2.121843457533228 0.0054560042951665 )
( 17.206330972676096 2.204132869798684 0.0127734601451772 )
( 17.227196888793177 2.286416509455389 0.0195540964043451 )
( 17.248664969990205 2.377322650735456 0.0264121828145302 )
( 17.27394810674258 2.469353014338697 0.0320622428396211 )
( 17.301589722200195 2.560642965634744 0.0364273552464874 )
( 17.32915117248892 2.6568198945423505 0.0406182546373629 )
( 17.35636446686399 2.755650348950561 0.0432682729555871 )
( 17.38532626383449 2.8540624750492936 0.0450129759380732 )
( 17.4176092115566 2.9495463261046515 0.0473433407402013 )
( 17.45096846289343 3.045863173956466 0.0480537017235898 )
( 17.485119825697456 3.146469319387178 0.0484181428344959 )
( 16.961918348349574 1.5718597191055332 -0.0184380090972393 )
( 16.943038158675673 1.6219457125883805 -0.0127156243307007 )
( 16.93383085661961 1.730630628501082 -0.0018189567237701 )
( 16.92837259989449 1.85559430168498 0.0114352777931937 )
( 16.921195908080755 1.951698173844329 0.0240226975655945 )
( 16.912832356327876 2.0402963588699867 0.0368191204128022 )
( 16.908723336722897 2.1300067425892557 0.0485257736584751 )
( 16.905096310616674 2.224589423547732 0.0595959510040897 )
( 16.903411207890745 2.3218666853072607 0.0693513020790076 )
( 16.90197442433532 2.418951278766582 0.078300625889397 )
( 16.900154443163867 2.5259949248656017 0.0860800605757014 )
( 16.897792323128012 2.640501595586745 0.0929550432612092 )
( 16.894284048209563 2.756702755997218 0.0976751452068358 )
( 16.893432733916956 2.8767881725962723 0.1004598758914211 )
( 16.894252119958338 2.9950535086470707 0.1025066487324524 )
( 16.896880037882383 3.1077205657326443 0.1032008097197191 )
( 16.90041832850919 3.2125890707354454 0.1034254583689103 )
( 16.903891992069727 3.3205223179942758 0.1030064716055142 )
( 16.911911046817146 3.4285266338662104 0.1021747819746583 )
( 16.82726370297325 1.579052193735573 -0.0001742570914697 )
( 16.790674421447864 1.6370105558756003 0.0109074477016146 )
( 16.76174110687062 1.7614588307917205 0.0296836174672036 )
( 16.733676750604083 1.896277520235073 0.0505365367878516 )
( 16.704977973069877 1.996284001158582 0.0673215988679754 )
( 16.680409364241317 2.095602002157506 0.0829434921587808 )
( 16.659152303530348 2.198265308008883 0.097419828926679 )
( 16.63294849601049 2.3013800022005517 0.1107264488269859 )
( 16.60813786923282 2.410025714475996 0.1214090166382223 )
( 16.58438347484351 2.5279236322385668 0.1304736474515313 )
( 16.558180455134245 2.65195095791096 0.1373180782066164 )
( 16.53124214565943 2.785667622823356 0.1418865573741609 )
( 16.504772171571094 2.924926459161308 0.1440218022363925 )
( 16.48102431445167 3.0593140464044253 0.1444882730912336 )
( 16.460228241676987 3.18323041823928 0.1444167791722797 )
( 16.44247639723982 3.2944584116353037 0.1430700968008418 )
( 16.423194845300316 3.395053969105561 0.141299331072798 )
( 16.40294963716994 3.4969342654232136 0.139389605184425 )
( 16.389697073567792 3.6033914440809 0.1372783474443011 )
( 16.69428251303384 1.5806733353593236 0.0201003687398733 )
( 16.642047604456973 1.6464357142143324 0.0361461395761532 )
( 16.59681529589739 1.7786467532267465 0.0601230808767805 )
( 16.549519250563186 1.919079642909768 0.0845887474356849 )
( 16.499961992905728 2.025049111657894 0.1035425341160213 )
( 16.45502509799906 2.1290135333734748 0.1197394079069238 )
( 16.40758601707689 2.240300936219944 0.1338378640975009 )
( 16.355459868707076 2.353283670311413 0.1460244254666192 )
( 16.307982421778256 2.471846133715769 0.1548791194685529 )
( 16.261593011433348 2.600523490982605 0.1606467694676832 )
( 16.20921671728806 2.7381052459409347 0.1633400606823534 )
( 16.16081645147011 2.8830725867172147 0.1631995496180996 )
( 16.115115359428653 3.0299776178014453 0.1612368321119768 )
( 16.066819397694577 3.1708618914153397 0.1587101402816592 )
( 16.020487578038246 3.292476242370788 0.1560399354955501 )
( 15.977483817017912 3.397381178164402 0.1536040174955671 )
( 15.934892971543904 3.4929372502394456 0.1513863229009676 )
( 15.889003786146995 3.5900070113405773 0.1489708477048785 )
( 15.845953157306475 3.698691203452373 0.1465076259689054 )
( 16.569202573391074 1.5775216248141597 0.0392220963762775 )
( 16.50703202289751 1.6523589596647092 0.0571493867038697 )
( 16.444509837747322 1.791643598250091 0.0830751666862505 )
( 16.374907410628584 1.931372311483124 0.1082110233052749 )
( 16.304904374963414 2.039089687628492 0.1260151214779798 )
( 16.236423802433396 2.1457469529580666 0.1401655370481201 )
( 16.161084987056455 2.2612777719819754 0.151974276209024 )
( 16.08376040001968 2.3801594866959497 0.1597031379807416 )
( 16.010217597419842 2.501642999816616 0.164174900376092 )
( 15.934256672969571 2.633578619352443 0.1657496510835686 )
( 15.853100240665356 2.780661290028298 0.1649922742360196 )
( 15.774382949183808 2.9333712297334467 0.1626604294544334 )
( 15.696599891692903 3.082698603043979 0.159175952128888 )
( 15.616301939242469 3.222722186492549 0.155723255425027 )
( 15.538228854628503 3.33773895379581 0.1523357663207432 )
( 15.46261448057333 3.441069193366279 0.1496026712265442 )
( 15.389188436114386 3.540109934400019 0.1473849298517892 )
( 15.315803217208854 3.6398625179115554 0.1449911941893907 )
( 15.24141900564056 3.7533583301548057 0.1423671236409554 )
( 16.454192601446916 1.5685900509340331 0.0522363682199089 )
( 16.38028861455298 1.6506299560327442 0.0707137630148637 )
( 16.29583300308565 1.797803338767147 0.0963894832608355 )
( 16.204124868488524 1.9353712171083568 0.1195506821798198 )
( 16.113171331677183 2.041753329608802 0.1347155433529714 )
( 16.02132631707792 2.1501061374863912 0.1454918353555762 )
( 15.923606409808809 2.2635377882933203 0.1537252798995638 )
( 15.819469268810854 2.3809430030176784 0.1574499622001747 )
( 15.709849963088985 2.5036825241900944 0.1584348936529658 )
( 15.596776921837948 2.64327860954179 0.1582508842159747 )
( 15.485908865978702 2.793584008429072 0.1568219921555886 )
( 15.372017646931605 2.945855102234291 0.1532782213241768 )
( 15.259728684857782 3.0957296697189927 0.1494966182647572 )
( 15.15068149923888 3.232160424266606 0.1464300913259885 )
( 15.041631588517443 3.345748985523377 0.1425900585180621 )
( 14.94027021071183 3.4462525752411657 0.1389329630301238 )
( 14.840534958238996 3.543883620170196 0.1356568781756071 )
( 14.740014390456183 3.6437348267084255 0.1319431730642099 )
( 14.638560668535437 3.7591746210483095 0.1279429658692223 )
( 16.341522279353175 1.555052326591401 0.0586528658422397 )
( 16.25327495810873 1.6441108014305748 0.0767239191976905 )
( 16.147334192765413 1.7935635503194691 0.1019421714514861 )
( 16.033867456211613 1.925234846052069 0.1217993301005631 )
( 15.920816109236764 2.028181974107367 0.1336713209846848 )
( 15.801446623824264 2.1335073540111 0.141942003677727 )
( 15.677189813901444 2.2454377279735573 0.1465444144559171 )
( 15.545279745791373 2.3620528780803327 0.1486027831477919 )
( 15.403221648269469 2.4838685134710548 0.1482910280534177 )
( 15.26372729628023 2.624542040972422 0.1471964405848113 )
( 15.121311099520002 2.7755580573787526 0.1452870222384849 )
( 14.972045303875372 2.9289807549210853 0.1412403512630808 )
( 14.83025685024318 3.075032000462154 0.1372609286827813 )
( 14.693960358259744 3.205863889368392 0.1333882132957518 )
( 14.55773636321943 3.320938539539516 0.1284300639786261 )
( 14.429974896388677 3.417179419519219 0.1235234289207751 )
( 14.30664402693742 3.5108933273679908 0.1187169498203991 )
( 14.179909105704663 3.613910499369636 0.1131198938139786 )
( 14.052690264266062 3.731630031377695 0.1067580852888818 )
( 16.235508883691775 1.537964240078277 0.0594872516573119 )
( 16.130305489965654 1.6282339159643922 0.0753832926240054 )
( 16.00203329627911 1.7741320839395576 0.0996913022623121 )
( 15.86538495778242 1.8995076317861328 0.117884396766864 )
( 15.727187411930478 1.9994128249411909 0.1275716370745488 )
( 15.581754515784318 2.103017314012145 0.1338775158336023 )
( 15.4288396879191 2.213792669854511 0.13723091866164 )
( 15.27184951149061 2.325891806082636 0.1384524330847824 )
( 15.102108132758534 2.444777355506016 0.1376131916331466 )
( 14.93453996424144 2.5868884571704647 0.1357510170739015 )
( 14.759676430949307 2.737963804321048 0.1328019474216806 )
( 14.582364118839816 2.891825657158366 0.128206011590949 )
( 14.41406315887231 3.035573067045497 0.1231918165137819 )
( 14.248188801727414 3.1573742655449166 0.1175743882673973 )
( 14.093033552358213 3.263746767029042 0.1110248011948536 )
( 13.941622438474486 3.358274504162761 0.1041543720325055 )
( 13.793169568246824 3.4540146655922284 0.0972415670298769 )
( 13.64327656406915 3.5617276558615907 0.0900424410314121 )
( 13.49351214815944 3.683621004540529 0.0823712648591732 )
( 16.132649513444147 1.5117646127662872 0.0544796792359275 )
( 16.007892479754613 1.5978942523548636 0.0687771300028832 )
( 15.85620770189326 1.739802288057146 0.0925206242952347 )
( 15.697934759922406 1.85990883452762 0.1096386162587439 )
( 15.533883160787507 1.958649001449688 0.1193308829698392 )
( 15.368023943727271 2.0577587706613496 0.124810664058599 )
( 15.193889773258215 2.161760380506584 0.1280896715955937 )
( 15.01351223898109 2.274982812941643 0.1293070025671205 )
( 14.821249541187754 2.395713526911184 0.1280430370723501 )
( 14.617637041913811 2.532445391945661 0.1250646390582779 )
( 14.413818767000231 2.6821259548132947 0.1204223775882174 )
( 14.215789157970224 2.832374129796233 0.1147516063106295 )
( 14.017705112294523 2.9723529598235148 0.1075094601343602 )
( 13.826596469613538 3.090466544153913 0.0998609156995126 )
( 13.653810046675227 3.1902763400684595 0.0922060811434785 )
( 13.480044306240636 3.285170514715788 0.0834809533648752 )
( 13.307146423154204 3.3813761371540245 0.0753804334848544 )
( 13.134045544158806 3.490094618148032 0.0680588055536693 )
( 12.958318442458785 3.61624528364181 0.0609455186115267 )
( 16.026663532388145 1.482057517930445 0.0463359842040524 )
( 15.882751650173242 1.5689102845960454 0.0617210653509122 )
( 15.709848787125628 1.7047998198196397 0.0858257635660281 )
( 15.531862337094491 1.8139775562520253 0.1019786928906566 )
( 15.349716287819756 1.9100339744431547 0.1113773021495174 )
( 15.164547003280628 2.0011168135337924 0.1170967886882043 )
( 14.966995811719835 2.0954376317440087 0.1200124488223175 )
( 14.757966110448216 2.2051115802200707 0.1206766331769213 )
( 14.54538881648762 2.323103492045018 0.1187131585951268 )
( 14.319461004173466 2.4569483633015783 0.1139428650188671 )
( 14.09244245565244 2.6085441931662423 0.1076527936815731 )
( 13.87168436143015 2.75846854279772 0.1005412368459801 )
( 13.651225488342524 2.8915580326055235 0.0918163405138024 )
( 13.442295796090388 3.007380903288541 0.0827799718448049 )
( 13.2450482349159 3.105064377359766 0.0740933039413548 )
( 13.04651964058406 3.19607419688712 0.0653742936515298 )
( 12.846258979909727 3.2899074003821567 0.0577187727470573 )
( 12.647452272524506 3.398331085086527 0.0509210864837529 )
( 12.44730837369158 3.530193689393393 0.0437831952741351 )
( 15.9253534821633 1.4507501540521237 0.0387445968931041 )
( 15.765805329955292 1.5373789120341397 0.0557636604359414 )
( 15.567848252434889 1.6644513911226684 0.0801917661719384 )
( 15.374954424138332 1.7615998231266714 0.0954851548065275 )
( 15.177292816962382 1.8497864089838356 0.1045534155455345 )
( 14.970298477678856 1.934229669484784 0.1100881006047951 )
( 14.752261094021396 2.019783383469797 0.1121720514346742 )
( 14.524374218959814 2.119756220973701 0.1119112329550729 )
( 14.289789323639964 2.2374163352831604 0.1091501351850296 )
( 14.047013961720037 2.371193557271459 0.1026667116509122 )
( 13.798385019425902 2.5192814117775906 0.0950500766210887 )
( 13.54825698847221 2.6707312654580777 0.0865779472918364 )
( 13.31223892639566 2.7991830127270925 0.0771463199652947 )
( 13.085779744473747 2.9117141324387745 0.0680303518737063 )
( 12.85934952692186 3.007612889693303 0.0589980676999211 )
( 12.6325177606471 3.093545684630213 0.0508006461294994 )
( 12.406385308875858 3.1861734508910016 0.0429930540318964 )
( 12.185874811804512 3.2972881101054106 0.0353034893040738 )
( 11.960701739774116 3.436359694515096 0.0276774080536117 )
( 15.825286229598706 1.413336419045056 0.0325400774617846 )
( 15.647615884190213 1.4971572143721832 0.0508691784404325 )
( 15.429081107454062 1.6166677719469216 0.0754006950374902 )
( 15.224392229946185 1.701802520228714 0.0899624831271641 )
( 15.010886000951606 1.7784494625317948 0.0989884771851916 )
( 14.785419377628491 1.8574114085769775 0.1039024739345385 )
( 14.555293379821324 1.9431817845760608 0.1051779672325974 )
( 14.310866317468696 2.0396196923302776 0.1038297744125176 )
( 14.056727063343011 2.1541232850789296 0.0994425635371517 )
( 13.79413452432009 2.282851822095088 0.0921007155930263 )
( 13.524503788565555 2.4238894088357643 0.0838137174961461 )
( 13.251618124168465 2.567367855346867 0.0742712031335932 )
( 12.99047185981876 2.6951195701538637 0.0640263711180736 )
( 12.737637968009231 2.8099361367476416 0.0545033266546312 )
( 12.484406224548795 2.901795105575226 0.0456571398930263 )
( 12.23676468767892 2.981359809418433 0.0374888943664305 )
( 11.99316121576321 3.0737735893620326 0.0291844564429969 )
( 11.749695807611062 3.1935015499970647 0.0214276164759288 )
( 11.498136077046668 3.342447089843072 0.0160354651217338 )
( 15.72345918623986 1.3663055459179734 0.0267900458758497 )
( 15.531419646981025 1.446857902500553 0.0471762404987321 )
( 15.30258495500994 1.5605113053365862 0.0719216704210105 )
( 15.083563088096051 1.639441821498899 0.0856390720496118 )
( 14.857466206310628 1.7116620668045874 0.0943558771807412 )
( 14.61874347970407 1.7855695860572325 0.0987965083422121 )
( 14.37387222146815 1.8666982509040704 0.0989274637586804 )
( 14.111499390495377 1.9555685685041757 0.0963615891883229 )
( 13.838283297477162 2.061064382910501 0.0904879046015504 )
( 13.5585808977192 2.188690219427203 0.0820567439897899 )
( 13.26580202870311 2.3304721605138194 0.0731984658676725 )
( 12.97252271920556 2.4662856643218136 0.0626288268581668 )
( 12.683545344030644 2.5891259794153 0.0522024151658954 )
( 12.399059408222865 2.698528922568464 0.0423154981713437 )
( 12.129167309288114 2.781538190792944 0.0328600622800887 )
( 11.86946164954153 2.8608369984638755 0.0250633233358202 )
( 11.605060473791928 2.957655642591584 0.0185288421963908 )
( 11.333015102976454 3.082642971289117 0.0134334465006969 )
( 11.046736952137971 3.24634460047419 0.0116764859284853 )
( 15.625688148441014 1.3110415568702998 0.0221488675823486 )
( 15.42718658622876 1.3889937216509614 0.0441259057585649 )
( 15.186403881094778 1.4973964679796103 0.0692357800083586 )
( 14.95495599270042 1.5716899921775125 0.0822716387912103 )
( 14.71600134574814 1.639338868640151 0.090411600557591 )
( 14.468496842164448 1.7051696446313225 0.0941728490962774 )
( 14.210121131819346 1.7789966329946296 0.0935442060708636 )
( 13.93821225056299 1.8635581132610624 0.089562316271171 )
( 13.646485870486169 1.961700263490016 0.0825151446962152 )
( 13.34300550869441 2.0847935480195168 0.0733315959331728 )
( 13.02655448650713 2.224734239132085 0.0632164929241867 )
( 12.705598480353853 2.3610929729266523 0.0517845833301518 )
( 12.39286020389965 2.4817780035819768 0.0414788643509229 )
( 12.09189596362342 2.578840637161284 0.0316444669557674 )
( 11.805458718390517 2.6549281660106865 0.0225606684760639 )
( 11.521282106329911 2.7388893776202967 0.0161222221910836 )
( 11.229552092442256 2.846141161553648 0.0120982847128468 )
( 10.92403138658176 2.9723653849622824 0.0103558513623427 )
( 10.593406425867991 3.142324354144138 0.0112997934349837 )
( 15.53625595435948 1.255305072880831 0.0197659529499727 )
( 15.32706071398437 1.3307056427198765 0.0425112517250639 )
( 15.066978585528554 1.434031772174253 0.0673761086501325 )
( 14.827309081977102 1.4975753834440884 0.0797155811868568 )
( 14.582408522744933 1.5574278485015818 0.0864988986364381 )
( 14.328946611566147 1.6182478567524587 0.0890134574958091 )
( 14.05827707614541 1.6845332146526266 0.0879269394684891 )
( 13.77016769744905 1.7656841389708002 0.0827336367964053 )
( 13.46544408601497 1.8587145113780927 0.0748115104865726 )
( 13.142120304954332 1.973016057830294 0.0650200948430973 )
( 12.798654256589858 2.1092796434082843 0.0535913729901796 )
( 12.44954232917025 2.241460056592809 0.0421312188268609 )
( 12.1123799218719 2.359910045199113 0.0319623083256379 )
( 11.80041932634301 2.450999532499718 0.0227534722543713 )
( 11.498717769705792 2.524530837998445 0.0161279506621016 )
( 11.188334520401671 2.610382174373147 0.0115350314415947 )
( 10.861197194791869 2.7212449320135126 0.0091747841320346 )
( 10.512455539243897 2.859076234978961 0.0098026157127635 )
( 10.144699241313132 3.048608288157316 0.0124488503116625 )
( 15.4535441924542 1.2009748155245965 0.0193340151664283 )
( 15.235783376299828 1.2719642662735535 0.042272315099894 )
( 14.963297160664723 1.3675751640374854 0.0659682530325638 )
( 14.714371293334858 1.4191104783382815 0.0776035282481319 )
( 14.463716401268677 1.4682999041239704 0.0826918101913635 )
( 14.20189390897266 1.5301085111773998 0.0835812889151292 )
( 13.92066207148172 1.5879368266060294 0.0814223780971607 )
( 13.614166646275768 1.6569713239571036 0.0757695717748401 )
( 13.291284228776089 1.7493034263465868 0.0677989128464455 )
( 12.949585469282468 1.856437710885575 0.056973558294129 )
( 12.575606089406696 1.990913298891204 0.0445377501457967 )
( 12.197472342783888 2.1216814087967366 0.0336270113242952 )
( 11.849605066826548 2.2296540145287644 0.0244134701361222 )
( 11.52911166213086 2.315644917772276 0.0172431541125999 )
( 11.208045098899724 2.3910956292693872 0.012816168833118 )
( 10.868552030357268 2.4786257520073867 0.0096791244523353 )
( 10.50067872259908 2.590670539525138 0.0101316175466535 )
( 10.106663951256182 2.7440190490505483 0.0113607075225085 )
( 9.719789436790215 2.971709828496901 0.0117621014481943 )
( 15.378866278357757 1.145671901761356 0.0200525653266112 )
( 15.15000387107795 1.2088278273613735 0.0424447804849668 )
( 14.870139127927882 1.2986857243427294 0.0648985342189099 )
( 14.619326202206016 1.3435289140959723 0.0754136101260373 )
( 14.360185441626934 1.3850212005611124 0.0798880514888028 )
( 14.083484964745388 1.4391384914587868 0.079945480745322 )
( 13.78965844598874 1.4866102060048982 0.0765198412428697 )
( 13.476368513505747 1.5509463502330867 0.0700963477865118 )
( 13.134246051774776 1.6402292223721109 0.0612294655121594 )
( 12.767368440078547 1.7359025368593 0.049584833226145 )
( 12.380437486903292 1.8621530154752977 0.0375614474165237 )
( 11.980601483449709 2.00088242527386 0.0272657095752703 )
( 11.617921259159342 2.102887999955897 0.0194361942373459 )
( 11.278988240216066 2.178549570927704 0.0141396067777584 )
( 10.927388023360638 2.255273011522475 0.0103807122092439 )
( 10.548044703531904 2.339650608419151 0.0086165281285929 )
( 10.142088835145795 2.459155893368361 0.0093930164765464 )
( 9.725208180186472 2.634179924667917 0.0087721712511228 )
( 9.336281614135371 2.9084096726512776 0.007499025302463 )
( 15.307392242070724 1.0881452672538463 0.021839661982907 )
( 15.07159192244252 1.1439394120660846 0.0433586519905485 )
( 14.785424076228448 1.2250258226027744 0.0643751085286857 )
( 14.533967541420944 1.263950846742148 0.0735082045444682 )
( 14.268153641323448 1.303796030108616 0.0773941886101901 )
( 13.97834365766743 1.3492755204753892 0.0765646667964735 )
( 13.67591526904538 1.3834073262201398 0.0722732858547247 )
( 13.349632046087466 1.4450064458046363 0.0651534026813478 )
( 12.986577345046078 1.5315469020055388 0.0547840262020316 )
( 12.59955047018136 1.624571361729139 0.0431341119483825 )
( 12.192882307383432 1.7365227418432112 0.0322789942897242 )
( 11.77885001288852 1.8575900973063428 0.0229478135280052 )
( 11.400088906310147 1.959098923476736 0.016216282740977 )
( 11.032109806349885 2.037250588849368 0.0118154365294988 )
( 10.64873619997527 2.104166308387286 0.0083627206169096 )
( 10.238055365746622 2.1882849874341703 0.0061321168807162 )
( 9.801326841116596 2.3164842650809416 0.005530749383612 )
( 9.377435222065715 2.528020115230031 0.0032865461841693 )
( 8.967047017188406 2.870011686781929 0.0017101840184318 )
( 15.244018967816924 1.0284352267066146 0.0237004504245474 )
( 15.004031576442856 1.0763845306638329 0.044344337061905 )
( 14.70867346490798 1.144842008132836 0.0636967707095105 )
( 14.455401296095868 1.181556386970604 0.0718923053499926 )
( 14.183060350006215 1.215685278022929 0.0747666916915778 )
( 13.879732165282464 1.254363373916264 0.0727824087659741 )
( 13.576204702980748 1.2867766360360309 0.0680655775897171 )
( 13.236472936543048 1.3351226923930395 0.0603736197108319 )
( 12.85054587593786 1.4144432693337083 0.0488996815015442 )
( 12.44110459179609 1.5079432133927897 0.0376832972763729 )
( 12.007221265111232 1.6137214266620732 0.0278568590466705 )
( 11.587464500779626 1.7191432339774655 0.0189477577419531 )
( 11.18770886848116 1.8085738296242928 0.0128060412347888 )
( 10.787115163100234 1.8849945801882255 0.0097675227638225 )
( 10.381790561312224 1.9524531685175897 0.0075400401426558 )
( 9.947097482993897 2.043824035802304 0.0049801058567632 )
( 9.486936272581268 2.186592300519329 0.0028011018069559 )
( 9.045442450768954 2.432020808641117 -0.000250124648094 )
( 8.536384931045836 2.803101930275352 -0.0041958287023653 )
( 15.191955455595904 0.9675254426870958 0.0261435202923041 )
( 14.942798413735083 1.0037677556018458 0.0454518326489454 )
( 14.639739496525358 1.0630318191610193 0.0633254467743599 )
( 14.38219634574056 1.0960257386428094 0.070545930194781 )
( 14.10390192387197 1.1261132557107585 0.072511768641222 )
( 13.79006882983956 1.1627618587690665 0.0696774742946759 )
( 13.474169373589186 1.1900422531704415 0.0643339868508896 )
( 13.12840245244972 1.2268353224411954 0.0560101639907123 )
( 12.731903457050247 1.2942064932206507 0.0445359995694987 )
( 12.300000846835308 1.3762129873208675 0.0336435792297742 )
( 11.844417425671988 1.4817143076054435 0.0243614140344755 )
( 11.409539929650622 1.5871633809783154 0.0155119655209683 )
( 10.983962844729534 1.663676914496507 0.0096416236680108 )
( 10.56078918366629 1.7286073821589605 0.0069528639060711 )
( 10.122960833318448 1.8063268463335072 0.0063551240288586 )
( 9.66567167890346 1.902626966531989 0.0056306063055175 )
( 9.19417398125191 2.0614506533043744 0.0013226271475187 )
( 8.678797522705624 2.337285255162197 -0.0031122413877323 )
( 8.006887296628841 2.676335979084574 -0.0092125945966068 )
( 15.14338866953455 0.901263153701112 0.0287381622572336 )
( 14.891668443277997 0.933971303739454 0.0466926418610276 )
( 14.586464991038138 0.9847861287218432 0.063119517405667 )
( 14.319606584517048 1.0053080607067268 0.0691446487219353 )
( 14.03410920078124 1.0332940317929784 0.0704569726565204 )
( 13.714105549207453 1.0707467864300082 0.0670970022191274 )
( 13.3841015283867 1.088630797778229 0.0610560802492773 )
( 13.032155753564902 1.1163580616739914 0.0519375934753728 )
( 12.616639979390843 1.1761011513463957 0.0408410681060174 )
( 12.166810927536591 1.250394787898674 0.0304813076685712 )
( 11.694870418071613 1.3464746872312363 0.0208265311159586 )
( 11.230071120753324 1.4452564170574458 0.0129218093714467 )
( 10.790230649493273 1.5236196319616675 0.008091254771918 )
( 10.359518130340849 1.5837172221341191 0.0045482360577099 )
( 9.891950229442646 1.6594069789745862 0.0028110006931561 )
( 9.400871173803928 1.7581679048299004 0.0004597579490005 )
( 8.908871834880854 1.9295293280114605 -0.0026825801359896 )
( 8.292808812348767 2.218707741739313 -0.0078089683544798 )
( 7.390506088648841 2.4838801605868825 -0.0146271931717295 )
( 15.100982315208162 0.8329802761937891 0.030663126287876 )
( 14.847571692716375 0.8644176854167764 0.0476353978822529 )
( 14.5385377090551 0.910325503107356 0.0627788002518714 )
( 14.2671005470341 0.9248101460797764 0.0678348716598482 )
( 13.97095526387904 0.9448901743398452 0.0684839763106138 )
( 13.63795613978871 0.9664774679011608 0.0648416914611757 )
( 13.298512156516953 0.9793031575338234 0.0578857916976023 )
( 12.94067612292883 1.0014282555422034 0.0481480469197134 )
( 12.498731711510038 1.0527684057077853 0.0371541167321233 )
( 12.030320301871356 1.1272077661532118 0.0270027525834422 )
( 11.555313485681577 1.2139362684493535 0.0176016315455429 )
( 11.077524919725798 1.3091550314681264 0.0114136970610476 )
( 10.620753847329054 1.3909001932937517 0.0071708918845737 )
( 10.161837906530003 1.4404088731378413 0.0035005597717869 )
( 9.680403647248829 1.5047095139852054 0.0007934957727569 )
( 9.165852227430976 1.6056217691016228 -0.0039717242340087 )
( 8.602758046019297 1.793412789219325 -0.0086045635253186 )
( 7.91705386675812 2.0878527179087976 -0.0161786158208489 )
( 6.649791173485252 2.203354786180433 -0.0202891067121587 )
( 15.064018156041922 0.7701365221096116 0.0332541958799757 )
( 14.80470717359318 0.794376942571531 0.049532987491259 )
( 14.492427798177593 0.8344734982406843 0.0631959456806658 )
( 14.220133798102134 0.8478681347258551 0.0674003707564182 )
( 13.914173077604284 0.858128798347479 0.06738493229006 )
( 13.574853903113103 0.8658105299519403 0.0628442118685056 )
( 13.225862728044286 0.8790117532459285 0.0543186251600675 )
( 12.84941040478596 0.9014487169505816 0.0444026296953563 )
( 12.388423584264396 0.9379544318871404 0.0338026425434852 )
( 11.89778374042721 1.0047013872530888 0.023502493353419 )
( 11.417223748311052 1.0815717230524724 0.0157692833612634 )
( 10.942101617070916 1.1605265725177392 0.0099180894203676 )
( 10.469207329817582 1.2334037793951969 0.0048757821166787 )
( 9.979272033109428 1.2825425674806674 0.0028073287091944 )
( 9.471843388142595 1.3387111972838377 0.0023114439323581 )
( 8.933584526318446 1.4397977647236124 -0.0029159062151716 )
( 8.286838051009754 1.6366541358323137 -0.0111295607510225 )
( 7.421821794313261 1.884362190629308 -0.0186842130061973 )
( 5.941885769530192 1.8870947923808716 -0.0210322265131955 )
( 15.03383148412089 0.7054537541876865 0.0363012367394888 )
( 14.76895766318454 0.726156738778601 0.0515840633809059 )
( 14.448642770135582 0.7596384963166387 0.0636878848002443 )
( 14.173812775869123 0.7656742489503016 0.0665800376946391 )
( 13.862490318821871 0.7727882824002644 0.0662967919901676 )
( 13.522697938352591 0.7815287436981159 0.0610758516702309 )
( 13.169684488937056 0.7913034510265318 0.0511915723648827 )
( 12.77115045333267 0.8037415972071885 0.0410653088619855 )
( 12.29892158286837 0.8328181740496815 0.0310454770643758 )
( 11.80025917808654 0.8911656872461464 0.0209288930714609 )
( 11.302036640861688 0.957608212788615 0.0135789551455885 )
( 10.8040562449104 1.0151727530350954 0.008101024654964 )
( 10.312414846322316 1.06872942901966 0.0030052335076946 )
( 9.80487198222274 1.1138119978260146 8.593736639327011e-05 )
( 9.276314063996823 1.1697762152277955 -0.0008388091781262 )
( 8.694290660546123 1.28555859197363 -0.0064522237263785 )
( 7.987085687470428 1.4739953466754112 -0.0128922027500565 )
( 6.901026754159348 1.623857661759728 -0.0177321387887375 )
( 5.340741874535383 1.5832276115035058 -0.0213396152029142 )
( 15.010008205407283 0.6384908187752928 0.0393024849307175 )
( 14.744022709275232 0.658419051174567 0.0530611848611567 )
( 14.413988177824026 0.6879029803217366 0.0638694071617886 )
( 14.131404841765104 0.6854518563254532 0.0658976006620161 )
( 13.813712039976416 0.6848409053629315 0.0647708600970839 )
( 13.46973625092038 0.6908747046402799 0.0588115667383334 )
( 13.112028854888196 0.6867891991837275 0.0488243575435512 )
( 12.701992572200526 0.6927442887496087 0.0391367426732875 )
( 12.228314669363188 0.7294420405631593 0.0296899900469162 )
( 11.72300773181909 0.7794627907400542 0.0192686003707222 )
( 11.20087922113268 0.8374576951316773 0.0108008896632359 )
( 10.67993820390856 0.8760990488694487 0.0064323110832561 )
( 10.170288519676902 0.9121026685249332 0.0015930392559435 )
( 9.633642485248506 0.945486341760101 -0.0025887805866043 )
( 9.087357429360862 0.9976688960658748 -0.0071375744736474 )
( 8.444814153771844 1.1194342800464827 -0.0137774774184353 )
( 7.66597049042967 1.2860270670036211 -0.0177112088068931 )
( 6.472679848873579 1.3666774195568585 -0.0194985632938498 )
( 4.795052347858667 1.2811976866796178 -0.0205027551968054 )
( 14.98996022061889 0.580143801832561 0.0418094283483778 )
( 14.721546620192656 0.593468854053365 0.0545413575269289 )
( 14.385881756941494 0.6147368013315412 0.0642098313939097 )
( 14.096178960802268 0.6082467757505605 0.0656594197097079 )
( 13.77242048482676 0.5981364840087683 0.0633952075228794 )
( 13.426526698563173 0.5940484044122379 0.0564685765011541 )
( 13.05644118978986 0.5796473487334072 0.0466197530788573 )
( 12.636731641657525 0.5885389831661234 0.0377474523456486 )