/*--------------------------------*- C++ -*----------------------------------*\
| =========                 |                                                 |
| \\      /  F ield         | OpenFOAM: The Open Source CFD Toolbox           |
|  \\    /   O peration     | Version:  2112                                  |
|   \\  /    A nd           | Website:  www.openfoam.com                      |
|    \\/     M anipulation  |                                                 |
\*---------------------------------------------------------------------------*/
FoamFile
{
    version     2.0;
    format      ascii;
    arch        "LSB;label=32;scalar=64";
    class       volSymmTensorField;
    location    "0.0068";
    object      tauij_LES;
}
// * * * * * * * * * * * * * * * * * * * * * * * * * * * * * * * * * * * * * // 
 
dimensions      [0 2 -2 0 0 0 0];
 
internalField   nonuniform List<symmTensor> 
13597
(
( 0.2188181631288351 0.0272294715896419 -0.0063968231081221 0.0963271701538381 -0.0149341243885584 0.1707295073464016 )
( 0.2213483384264454 0.0293270589756834 -0.0040856435484121 0.0961945774015754 -0.014347003658475 0.1769856789609495 )
( 0.226894401313214 0.0339966805310857 0.0004933634771561 0.095566907976041 -0.014155737130062 0.1858567601076464 )
( 0.2339255218311488 0.0418623612525754 0.0053488696052672 0.0964689479473239 -0.0147904773907581 0.1948279739579009 )
( 0.2407725952201412 0.0498612203785619 0.0074167995980295 0.0979555232117112 -0.0157562608265779 0.1990868068699333 )
( 0.2476874848220893 0.0560506547747627 0.0066858006979867 0.0985008523331937 -0.0162802627936997 0.1993733050817979 )
( 0.2536558714651395 0.0628627161419645 0.0045319529120244 0.0994021452846407 -0.0170300238864477 0.1967595473380132 )
( 0.2606998179046436 0.0705111350138807 0.0015549060381956 0.0999801587891787 -0.017695441841773 0.1921512614776066 )
( 0.2681026026865194 0.07783011438845 -0.0021062326832162 0.0998765225442625 -0.0187889317973858 0.1858646889472246 )
( 0.2746289723954562 0.0850521103293763 -0.0065311419413835 0.0995857673383527 -0.0199691119752801 0.1779583593469588 )
( 0.2829516138428578 0.092353844439364 -0.0116661264809653 0.0984838198968471 -0.0210303781903964 0.1700054727837577 )
( 0.2905937464793764 0.099264281743623 -0.0164001433184124 0.0973527879447945 -0.0224974614804924 0.1618478398228695 )
( 0.2981480458520641 0.1051215663337663 -0.0202737098626424 0.0954049462468343 -0.023438141742069 0.1530241387109095 )
( 0.3064054217431381 0.1100460387963098 -0.0237986652932699 0.0927365284901226 -0.0242033528655809 0.1441512517449404 )
( 0.3134222115868195 0.1135408966876848 -0.0264548600661467 0.0897380562562931 -0.0247873909816383 0.1358456906529604 )
( 0.32098959255256 0.1161047674700817 -0.0278013695680609 0.0864125429026937 -0.0247517270728585 0.1285823017745473 )
( 0.3292866360031481 0.1182232226076138 -0.0271341892474429 0.082891895585938 -0.0236723874855692 0.1215970889528071 )
( 0.3365131778432687 0.1182875481642697 -0.0253371859098566 0.0786875650792551 -0.022039818820252 0.115432224565873 )
( 0.3426622785225477 0.1175322331829043 -0.0231528330607348 0.0749120048877355 -0.0204238782390603 0.1102313817243465 )
( 0.2283440659744131 0.0288453534185023 -0.0150806866290045 0.1034498984338611 -0.004568323849119 0.2011860678902884 )
( 0.2326288698714898 0.0316012345249231 -0.0129852111054977 0.1045765116418501 -0.0026638068965172 0.2096389980409801 )
( 0.2382392387621527 0.0383687093807885 -0.0085076552574979 0.1062977993033968 -0.0014758497722814 0.2174198024881163 )
( 0.2456852441292102 0.0484041675082034 -0.005867724630086 0.1105376487566611 -0.0016058802894625 0.2242811732534952 )
( 0.2527417334997555 0.0571199824281981 -0.0063218586600455 0.1133741317762395 -0.0018807045610283 0.2249888037642098 )
( 0.2591607000037214 0.0651576672333197 -0.0080284591403808 0.114774653671403 -0.0025536532796367 0.2226302332512404 )
( 0.2649458785324849 0.0735738814469424 -0.0104751624994193 0.1156225175627016 -0.003883155650456 0.2185472365431383 )
( 0.2712661870990704 0.0826434413482029 -0.0133125339345229 0.1161450516722351 -0.0050576526197678 0.213312801279841 )
( 0.2785782475892206 0.0915908771077231 -0.0159884739623817 0.1159799169458655 -0.0068807190809608 0.2078481002896217 )
( 0.2852862857709703 0.0995971527656262 -0.0178668521770117 0.114282235203668 -0.0091150857275818 0.2015817329977452 )
( 0.2926927257538244 0.1074337682845087 -0.0192185249913227 0.1120007923124569 -0.0113462252500975 0.1955805293741961 )
( 0.2989690115539814 0.1150008674663823 -0.0186564318883224 0.1096180109489761 -0.0134090315017704 0.1897230026909934 )
( 0.3046248806196516 0.1204027189453504 -0.016547519772376 0.1063662729884299 -0.015197392728464 0.1842349395264297 )
( 0.3104170418223555 0.1237172439090746 -0.0135303450349907 0.1022571227599628 -0.0167003407863876 0.179745549832615 )
( 0.3157378359779176 0.1259611314494961 -0.0090710992686607 0.098335192129766 -0.01726874636149 0.1759750167148247 )
( 0.3192374416022643 0.127034932051457 -0.0042743489323309 0.0950748256286564 -0.0173927790232463 0.1724873037239692 )
( 0.3214798336044522 0.1270913940963171 0.0011420898250482 0.0922912504698449 -0.0167858898009309 0.1693304999727521 )
( 0.3243723094927571 0.125502014774502 0.0073263079195277 0.08953252409615 -0.0157069327168897 0.1672206990025092 )
( 0.3264618339979342 0.122906323863955 0.0126462607977285 0.0873087645091586 -0.0146974034875618 0.1660394910331615 )
( 0.2331669391826591 0.0337293492994609 -0.0233031474357978 0.1110178357309071 0.0046550474132302 0.2292304136814758 )
( 0.2360640545447715 0.0381249382338041 -0.0212964435333985 0.1143922592425318 0.0080101143887013 0.2365350953905837 )
( 0.2389043614144683 0.0469715058404119 -0.0160064069173561 0.1193748343461763 0.0103600333043316 0.2385592788778129 )
( 0.2437226779037514 0.059174116070019 -0.0131259875188996 0.1262719403016545 0.011074190810721 0.2374702103158065 )
( 0.2494041256646202 0.0697143229275959 -0.0126785583240171 0.1311799191682351 0.0115853879509208 0.2333459679411244 )
( 0.2557067003781838 0.07927108320218 -0.0126164685205598 0.1342930639874795 0.0106188434656009 0.2279722481931022 )
( 0.2613304609878056 0.088925586535508 -0.0121050271887247 0.1357647822106519 0.0086825081364928 0.2218195978890273 )
( 0.2666663493561607 0.0988087338395129 -0.0113250088988094 0.136644804998207 0.0069070126840794 0.2162996970494134 )
( 0.2733497283697114 0.107818773615334 -0.0097872687752375 0.1363928904989185 0.0045380599155359 0.211623185116614 )
( 0.2802355359762593 0.1155607602036956 -0.0063449722222196 0.1341896984056141 0.0018583165579822 0.2077196020794911 )
( 0.285885867054821 0.1215957549500994 -0.002178185300556 0.130943550440493 -0.0007318063209569 0.2045712739290732 )
( 0.2914195219176034 0.1261564764979454 0.00339210882702 0.1275705237285092 -0.0025080051211296 0.2025938955163564 )
( 0.2968117292172078 0.1281534234906876 0.0101509467894382 0.1240687651192401 -0.0037711705568231 0.201471426262666 )
( 0.3003603460336739 0.1278029435768717 0.0166379128619679 0.1203066583722699 -0.0043199645357512 0.2004763140122571 )
( 0.3030712236141029 0.1267279149088735 0.0228151556043434 0.1169925640216562 -0.0035078613139164 0.2003522464452776 )
( 0.3041278175380683 0.1247804796748704 0.0277369955722664 0.11456782898443 -0.0025481240892774 0.20003954468482 )
( 0.3039587530007748 0.1220183284686536 0.0319201235770029 0.1127062873509019 -0.0012642666638436 0.1994313301119932 )
( 0.3041632470294833 0.1187884599874978 0.0358812642799223 0.1112465821481412 0.0005646059241793 0.1987493823536226 )
( 0.3038110080703184 0.1152283772722236 0.0387275162870731 0.1096769785161206 0.0023966597064788 0.1970346771717074 )
( 0.2288648809303642 0.0420926850317278 -0.028248872307794 0.11907733120968 0.0132697070834672 0.2497973089725935 )
( 0.2277324090611421 0.0489902580596847 -0.024165286747275 0.1256737947442452 0.0180674981622225 0.2530671169284884 )
( 0.2281321654033837 0.0600007451497132 -0.0172395749690588 0.1345646331610598 0.0218100552776608 0.246306104195305 )
( 0.2322199438123053 0.0746019245253517 -0.0126232710878057 0.1449031039654797 0.0229009523265739 0.2375936739433397 )
( 0.2375831803230124 0.0874922122075523 -0.0096467911623004 0.1521574037634144 0.0227758657785937 0.2313703457722125 )
( 0.2433942133713272 0.0983534850987777 -0.0070504767279892 0.1565778455404197 0.021008041092746 0.2254990888389612 )
( 0.2493453086987746 0.1084821519371408 -0.003795541846708 0.159061138862824 0.018394214043249 0.2204745148175858 )
( 0.2550610074838533 0.1174904685686617 9.036741534746729e-05 0.1595403579994358 0.0162139098300468 0.217983315654888 )
( 0.2611486046743774 0.1242645668191176 0.0044466488593637 0.1580147033302939 0.0138104876121977 0.2162942279924966 )
( 0.2661717848916108 0.1293446219788813 0.0094396521049774 0.1555235188858048 0.0116518012911458 0.2153285346949663 )
( 0.2689596175244145 0.1319518177674403 0.0150981846134764 0.1518341045691353 0.0103694729750152 0.214147812284354 )
( 0.273101888200413 0.1323355033538203 0.020967786040864 0.1473506624681944 0.0102986796653366 0.2133786573437762 )
( 0.2767816286432807 0.1311093067373279 0.0269365952364101 0.1432607982546389 0.0115564635669001 0.2128735457207316 )
( 0.2782860336916699 0.1286840310636463 0.0318643925487164 0.1401166360479706 0.0138146809675456 0.2118086461523437 )
( 0.278615012335162 0.1263015776310189 0.0351137795578055 0.1379331860586619 0.0166078862929722 0.210705997053392 )
( 0.2784445528421206 0.124258729635219 0.0371877382114417 0.1367441388989634 0.0194665233990695 0.2093446134092965 )
( 0.278425722354668 0.1221431221053014 0.0383637661421367 0.1359892863099866 0.0220485765757567 0.2072695961215619 )
( 0.2784703646005384 0.1202223162681671 0.038691359894824 0.1356450313372324 0.0248782804756474 0.2048734492224075 )
( 0.2787536392387346 0.1184908283647791 0.0377542184781211 0.1352619608218254 0.0276474750100651 0.2018506027566343 )
( 0.2166138519195618 0.0529739202023507 -0.0272872652048426 0.1296478179025238 0.0219676928443571 0.2613796975552042 )
( 0.2132326738759745 0.0623931495910049 -0.0200236440945758 0.1385684976567204 0.0275211426683594 0.2565725175260323 )
( 0.2143591704349954 0.076483763980986 -0.0119156618927855 0.151267552671999 0.031325282146201 0.2438786412955013 )
( 0.2190928252443074 0.0928557390824402 -0.0059859774201839 0.1641409030309978 0.0318101305050518 0.2340722015109639 )
( 0.2239622600323323 0.1060935068901167 -0.0017260990859561 0.1720149982051709 0.0304683048522262 0.2282888218519195 )
( 0.2285760841229024 0.1169681952293014 0.0016039205741291 0.1771015226265826 0.0281079103645715 0.2243666940609924 )
( 0.2328535925479206 0.125327303332956 0.0055776604325133 0.1787538208100395 0.0251954833758806 0.2216162792824277 )
( 0.2368871990697642 0.1316812155111674 0.0094918803183 0.1785625099597718 0.0228037831793224 0.2193951274304215 )
( 0.2400215802424639 0.1356444431951841 0.0141871708159184 0.1767415130297557 0.0217644363624715 0.2184058824132737 )
( 0.2417119221494694 0.1371116501474716 0.0185480899020599 0.1737517777585915 0.0215983739655288 0.2175920115931173 )
( 0.243779544807543 0.1372642480956142 0.0228870127637576 0.1705003938082526 0.0229920876769896 0.216306777814584 )
( 0.247019838752041 0.1361282966898503 0.02729356355165 0.1668225316075042 0.0258932722102757 0.2148800887426648 )
( 0.2493019784922831 0.1344314704250697 0.0307401338174168 0.1640078778991849 0.0299674327259297 0.2129515181454713 )
( 0.2509454444127177 0.1331388046492053 0.0330113419625154 0.1627669061372823 0.0345995458227669 0.2111182499027188 )
( 0.2522133938530193 0.1326781852490058 0.0335469751716974 0.1630240526695925 0.038750174156851 0.2089729981947242 )
( 0.2531684552271161 0.1327354175464989 0.0329560419944049 0.1642129470674661 0.0425252984568222 0.2067981137317836 )
( 0.2544104703177352 0.1330490997360821 0.0314663010845194 0.1652377011172567 0.0457418902944985 0.2041952830130789 )
( 0.256542208439044 0.1340981728376789 0.0294791762861378 0.166331116996984 0.0488369610152087 0.2018281817136911 )
( 0.2597291206972431 0.1355473989152822 0.0265591796401904 0.1672650524273473 0.0514670260764534 0.1994712659008264 )
( 0.2004177963615518 0.065386052888386 -0.0208748529946122 0.1415673460719039 0.0302799234983464 0.2633979137830207 )
( 0.1960522055140607 0.0773253016100973 -0.0119899228346399 0.1530095886360045 0.0360207889394168 0.2525972248774273 )
( 0.1991671704410957 0.0943122790158154 -0.003771168143797 0.1686820453962874 0.038411935162805 0.2375861345459685 )
( 0.2047874243999254 0.1105642410480963 0.0015766812720855 0.1823259166520313 0.0370988432085862 0.2293277095965935 )
( 0.2089563464516785 0.1217386675378542 0.0054699002760694 0.1891451574708698 0.0346335947339929 0.2245669913573617 )
( 0.2129880146683237 0.1302088316430812 0.008739836994225 0.1934811553274431 0.0322241464928183 0.2215254300011198 )
( 0.2146852248418936 0.135704730132675 0.0118120403102059 0.194792089396712 0.0299860528243989 0.2190404191897817 )
( 0.2161902748360455 0.139173166078688 0.014428115962352 0.1951283751746635 0.0287142699471126 0.2157163787659739 )
( 0.2171797240187603 0.1410949179011699 0.0183626360305818 0.1943606395310612 0.0299019557170032 0.2134460379809122 )
( 0.2174566377020316 0.1413137688421803 0.0221816988773077 0.1921178088452866 0.0328740979616875 0.2116289056633661 )
( 0.2194985643581025 0.1413880940871266 0.0250063742137975 0.1902046411868708 0.037066188553683 0.2097309457488953 )
( 0.2216263764313185 0.1412794481842153 0.0269245322740143 0.188930392825918 0.0419510384265133 0.2074706222068199 )
( 0.2240862550343911 0.1416773062788091 0.028161628226238 0.1888683498852343 0.0477143580542457 0.2050282739281678 )
( 0.2280820816685811 0.143528652058989 0.0285364991420925 0.1901363279332509 0.0529205429686816 0.2027114973371827 )
( 0.2318847620077693 0.1460644089967506 0.0278145123301789 0.1926947147894978 0.057123989240928 0.2008759405804881 )
( 0.2353935981831227 0.1488533413062412 0.0263764881054935 0.1954241954025807 0.0605967565256719 0.1994195885089442 )
( 0.2393585481869085 0.1520534225606196 0.0243497556800996 0.1978837764398202 0.0633381103186887 0.198239147122975 )
( 0.2448403166886241 0.1560927081208794 0.0220752203891806 0.2001078804979623 0.0654053201932126 0.1972119883476275 )
( 0.2520564366989588 0.1604633715481487 0.0191350128838839 0.2013858898642345 0.0666339104367046 0.1966554697821066 )
( 0.1825253385023087 0.0791839358559508 -0.010516187687383 0.1543235007764534 0.0380161679661783 0.2590225916709989 )
( 0.1798675215209614 0.0924931968582066 -0.001173803257206 0.1678685033579935 0.0430379188573928 0.2463173060612103 )
( 0.1851812315386543 0.1091938175051819 0.0049877907650373 0.1842489546915928 0.0433199376978478 0.2320725196957312 )
( 0.1904537134441623 0.1232995754541356 0.0076916487566379 0.1976420220469155 0.0399627328538618 0.2242499932764624 )
( 0.1934570154346737 0.1317683175929027 0.0101120541461298 0.2043685968572365 0.036866877617025 0.2190983488388391 )
( 0.1956079095801768 0.1372170275664778 0.0131648063170783 0.208119507808054 0.0348603004679456 0.2152498015919555 )
( 0.1956441718634461 0.1404393286883852 0.0154002152969582 0.2103431783125512 0.0341112047148174 0.2111345013414757 )
( 0.195075887488501 0.141926800309742 0.017332763872509 0.2113588668610465 0.035426139720769 0.206849574271476 )
( 0.1947266617635109 0.1432723198664341 0.0203401186837022 0.2121889886836542 0.0394166026378917 0.2032721157711765 )
( 0.1958794516241988 0.1447239193995224 0.0228898693977671 0.2123407660293144 0.0447117728017343 0.20020884211811 )
( 0.1982265795310454 0.1464070427220802 0.0242333169604864 0.2129602438779763 0.050505529485971 0.197192947123249 )
( 0.2016244836723503 0.1490845558588138 0.0250873569145531 0.2147103563800007 0.0566099299559824 0.1954027777784971 )
( 0.2068824712725327 0.152853892502211 0.0252829990862546 0.217242206752442 0.0620814139002375 0.1945379906826711 )
( 0.2137057437325923 0.1579255187668257 0.0248979742094743 0.2209145806079256 0.0665104896820715 0.1935558218026004 )
( 0.2212890548981575 0.1635386201166657 0.0241685588360375 0.2248959365745725 0.0698964397316292 0.1932966469633198 )
( 0.22863163312856 0.1693534837247091 0.0230497196599713 0.2286598104996835 0.0722975055268588 0.1933872257257045 )
( 0.2363133154653434 0.1753964580273186 0.0216851124219338 0.2323032224783475 0.0738646429887431 0.193715788594069 )
( 0.2456750912798899 0.1820598854845448 0.0199174554527688 0.2352319356481614 0.0744329382782417 0.1944358123126743 )
( 0.2571330994131018 0.1891771969430244 0.0175643159590153 0.2367397501564565 0.0739529117100963 0.1955841857069705 )
( 0.1676741905681571 0.0920622065402373 0.0010150299452428 0.1672156646473917 0.0444584467155221 0.2527052635510918 )
( 0.1679237689823589 0.1054812045987229 0.0092781232569524 0.1817158016588931 0.0477128719485135 0.239191792215676 )
( 0.1745741839441958 0.1202024114863496 0.0124350894938721 0.1975993616987255 0.0459516055628531 0.2263008370383037 )
( 0.1786213923929791 0.1305716229504823 0.0129322504334978 0.2101256694870247 0.0416239775181607 0.2180164097760479 )
( 0.1790058734797129 0.1359700977454504 0.0138509136934781 0.2174935012465303 0.0387635753510014 0.2110197980985229 )
( 0.1782344019478093 0.138886088178505 0.0150800319559833 0.2223317062331546 0.0375532340979954 0.2051163283801484 )
( 0.1769059989801237 0.1408241831416519 0.0170425445271179 0.2249672625128537 0.0392110529925102 0.1991374384628927 )
( 0.1754202788936874 0.1420704821553715 0.0187923340968484 0.2276164325337776 0.043286885647894 0.1941711637644015 )
( 0.1746811443080805 0.1439970559530715 0.0204688969274843 0.2318298842192905 0.0489817760211953 0.1900390846548654 )
( 0.177489796675408 0.1479686337083827 0.0222533734524326 0.2349290934405224 0.0554639104530538 0.1866612975203171 )
( 0.1820049691889826 0.1527805975864714 0.0232614886942331 0.2386503112928112 0.0619939302879514 0.1845589739706451 )
( 0.1889511568537396 0.1591524517212661 0.0244108494217029 0.2434572427258601 0.0684215653566529 0.1851151999263397 )
( 0.1989669887489807 0.1669736946944623 0.0245373279553383 0.248453416680949 0.0727521935865608 0.186263980896886 )
( 0.2096464994454593 0.1752274376481 0.0239630551927542 0.253932201269216 0.0754306310606102 0.1870869733891148 )
( 0.2204025775779906 0.1835396511544521 0.0235553009360543 0.2588921561818207 0.0773076189012134 0.1883594496212302 )
( 0.2312180612036492 0.1923319517969246 0.0230115907127753 0.2640326136615797 0.0782322975362868 0.189769243374869 )
( 0.2426431370050424 0.2012971235365433 0.0223748423790958 0.2686688603585613 0.078399664392049 0.1914148004796415 )
( 0.2555876741498141 0.2106017181474362 0.0212896386937084 0.2720771659328224 0.0775581248431164 0.1936907594739773 )
( 0.2704281340849968 0.2202238774924659 0.0196650973477762 0.2737638575840353 0.0755708353763029 0.1960169660011884 )
( 0.1565701773877794 0.1024495806150845 0.012159849231819 0.1789026044799843 0.0490734332676106 0.2459482163978204 )
( 0.1588957094112293 0.1146294887837938 0.0178456412627751 0.193762473966988 0.0503894882949208 0.2321902773072256 )
( 0.1655229169079592 0.1264532469257125 0.0175728608332408 0.2096533919547894 0.0468399113798234 0.2188959995823919 )
( 0.1677209511398343 0.1332328292357135 0.016290331225426 0.2218966823510843 0.0425573022783078 0.2086480270612447 )
( 0.1657987243113326 0.1359227352978115 0.0160188079779295 0.2296497346032479 0.0410263712347713 0.1993939460543096 )
( 0.1624596186628484 0.1368974384791744 0.0159363053293739 0.235903287333564 0.0417072230728891 0.1920480025314131 )
( 0.1596283003935742 0.1384192137961717 0.0169926764635219 0.2402630065050441 0.045396722694168 0.184956785039853 )
( 0.1585689544792033 0.1410897997332597 0.0186534266682251 0.2459766587923574 0.0510896571369124 0.1798337603522376 )
( 0.1590829571339088 0.1447136301873183 0.0199960412227559 0.2530987342749243 0.057482541282798 0.1767874945463766 )
( 0.1642137549168796 0.15169783866269 0.0215966635002455 0.259474761781968 0.0644800786098303 0.1747279209860975 )
( 0.1731233098170374 0.1607220608920185 0.0228265232575947 0.2661944415715105 0.0705130279798371 0.174920855111131 )
( 0.1841369375737926 0.1708332121763342 0.0242136079304525 0.2736933214242706 0.0757950990730107 0.1778196330742796 )
( 0.1982875956319704 0.1830461833271139 0.0252069845383029 0.2817253513708704 0.0793332250012207 0.1802308055944275 )
( 0.2126240257765709 0.1947171891209478 0.0252381889860012 0.2890194988488603 0.0806168851695729 0.1826858717445352 )
( 0.2256423191690143 0.2052031189550361 0.025261008459361 0.2951807721257922 0.0809325377829625 0.1855268122843024 )
( 0.2392580201769709 0.2168202355974885 0.0253736290951708 0.3018170765134789 0.0806045042682404 0.1881735197208388 )
( 0.253766716902024 0.228685608252622 0.0251467083551663 0.307616736849108 0.0793574352395751 0.1906837611418569 )
( 0.2701783545810436 0.2409462547778005 0.0246254100439082 0.3116820699624407 0.0771354791922106 0.1934707140800825 )
( 0.2887825264057076 0.2536687357177742 0.0234459204674494 0.3136600033110066 0.0737158163144418 0.1965342823796343 )
( 0.1510867452056536 0.1101359778811043 0.0221348125003404 0.1903277658094204 0.0525971814498612 0.2402961567952109 )
( 0.1549736539683866 0.1197839091718426 0.0243056300683869 0.2046771834506494 0.0517087650315883 0.2253077209314105 )
( 0.1581327661984856 0.1278154617954313 0.020106920782097 0.2206532300135502 0.0466452520141574 0.2090819807355269 )
( 0.1568577472859592 0.1313423851346656 0.0170461197680946 0.233150959930752 0.0432523139865394 0.1965499681504529 )
( 0.1529777446250749 0.1323620809471775 0.0160250673205909 0.2418791435181662 0.0435012877832595 0.1864945272769635 )
( 0.1483807125783402 0.1329448825346589 0.0162045673467264 0.2495000088553751 0.0463306710183921 0.1782928558822745 )
( 0.1448974563743346 0.1348274995033005 0.0165679842412021 0.257340625307971 0.0513125639544149 0.1703457017009238 )
( 0.1445420228724304 0.1394984770798969 0.017979484800755 0.2669417012220488 0.0583312409037212 0.1656625763313821 )
( 0.1479366789340078 0.1464769673524276 0.0200197772030958 0.2766835635416165 0.0654088777256284 0.1644802410393589 )
( 0.1562881987336816 0.1567856048528599 0.0217171785924708 0.2862449052345488 0.0717557720535942 0.1650112521892427 )
( 0.1695859699147802 0.1699740617076635 0.0233730141546615 0.2956323083940173 0.0767607792480678 0.1679854804417461 )
( 0.1849753272750074 0.1841275858455808 0.0250825873334931 0.3052064110390009 0.0803857708723214 0.1726712380959865 )
( 0.2012793257869994 0.1992871501733971 0.0267358693360177 0.3155753489210126 0.0827771958349348 0.1766628542378354 )
( 0.2178566240960544 0.213925897203476 0.0276602737885302 0.3248620221176438 0.0831659827009715 0.1805992988716401 )
( 0.2339826191162995 0.2280315195406045 0.0283871132149821 0.3334649983482878 0.0823775637512776 0.1839801747378963 )
( 0.2503863941921863 0.2427473593473479 0.028883895477354 0.3421249432654518 0.0807707225551048 0.1871039467522408 )
( 0.2678778704890108 0.257836367197908 0.0287553255650093 0.3498058548746364 0.0780431353152844 0.1900374589438956 )
( 0.2879624962760606 0.2736298555618683 0.0282629321465777 0.3551400377515136 0.0743478979771252 0.192764688934596 )
( 0.3110360844423703 0.2899252589676943 0.0269817524441944 0.3574786482825742 0.0695469326173856 0.19599246379755 )
( 0.1507576241983566 0.1144691883776079 0.0297654038803295 0.1990352828916582 0.0542676151090023 0.2352775683706371 )
( 0.153187006926735 0.1208916249142636 0.0277037744951337 0.212838919543803 0.0514266631372689 0.2174485613128999 )
( 0.1519802187901965 0.1255791748276661 0.0206589395306888 0.2301948440399784 0.0465299307266365 0.1977246533533189 )
( 0.1468651588487985 0.1261880837567438 0.0165456749696244 0.2435082281893202 0.0446946364016791 0.1834919725562949 )
( 0.1403881736478455 0.1261289509756113 0.0152498599320968 0.2539414446817094 0.0463963551009167 0.1725790036938134 )
( 0.1356085274247326 0.1275442132067671 0.015300287746983 0.2643998425885082 0.0508650413314898 0.1633774754531505 )
( 0.1336309783247373 0.1312745521703396 0.0159934940186101 0.2760597078138735 0.0572189528104528 0.156700743624586 )
( 0.1350122979085418 0.1380429922109586 0.0176677054437895 0.2886151732530032 0.0648836236184726 0.1545445469878724 )
( 0.1414167931520239 0.1482496121129663 0.0200214829745156 0.3013276704356791 0.0717798558831206 0.1553817521931184 )
( 0.1525990262574098 0.1622058692116192 0.0223048005641288 0.3142386670608711 0.0770436015642605 0.1584386402076344 )
( 0.1684866802181411 0.1792015225232307 0.0247224575460685 0.3266003958051136 0.0808695174383826 0.1634867156720538 )
( 0.1877405738824121 0.1980019604799341 0.0271911283953331 0.3388811522579695 0.0833727399475031 0.1692574130803923 )
( 0.2062854588057331 0.2160770446962116 0.0291393100555707 0.3510803639040286 0.0843698390700251 0.1744752630098081 )
( 0.2248899411415253 0.2335630341771913 0.0304808950134013 0.3622536625870551 0.0836857121429798 0.179059726603437 )
( 0.244196197796488 0.2519318026199031 0.0315393951464099 0.3739656193841432 0.0819114224361266 0.1826247228626581 )
( 0.2634501533016721 0.270226606864934 0.0320091322170664 0.3856210816198027 0.0789040541823127 0.1857330766787267 )
( 0.2846443898833674 0.2892552901093402 0.0320123435120795 0.3956830281641337 0.0749492363354506 0.1887109566086534 )
( 0.3087043390752189 0.3089880372232774 0.0314084486928717 0.4025864336278011 0.0703145518203631 0.1916784964988945 )
( 0.3367009345976215 0.3295181497894299 0.0295779498168839 0.4059370905781866 0.0645519768863143 0.1952594608490565 )
( 0.1509881725252305 0.114747421183354 0.0343790154520922 0.2063294107973813 0.0541909059687625 0.2288210759807023 )
( 0.1503470879548668 0.1178375012540448 0.0285112043156725 0.2205437790141108 0.0503117866975706 0.2074750227305146 )
( 0.1449591966521145 0.1198928766826871 0.0200592396077477 0.2393937520102568 0.0465968983123817 0.1859021168815754 )
( 0.13689494736962 0.1189592624551575 0.0157790096644285 0.2536333394659233 0.0465332416394914 0.1706959397169872 )
( 0.1295901929827565 0.1190744327050991 0.0143524037270678 0.266530752824339 0.0499187397696087 0.158852778165466 )
( 0.1254119611069492 0.1217743474502875 0.0140841173823976 0.2804179337488999 0.055867279056857 0.1501738243183464 )
( 0.1255052311544091 0.1279308597216549 0.0151606781173661 0.2950893683228031 0.06284984177114 0.1463128321104899 )
( 0.1294168027859754 0.1377243967138917 0.0174201515291547 0.3110412616433831 0.0701937130388498 0.1465366669814903 )
( 0.1382667868017604 0.1512215436827372 0.0203301871707559 0.3268814447967141 0.0762666326209773 0.149012763229361 )
( 0.1519227806794655 0.1686486314205549 0.0234390533060183 0.3427393409076611 0.0805772140073588 0.1538438757162314 )
( 0.1696431809933758 0.1889691739129729 0.0264781009489024 0.3583504259886095 0.0833598230444082 0.1604016751552229 )
( 0.1907747010232884 0.2115376105520634 0.0294690129138843 0.374264085636374 0.0848370279354231 0.1669454232037468 )
( 0.2121636334388855 0.2336365736951103 0.0317273112420262 0.389345464890508 0.0845773586546703 0.1724406904421419 )
( 0.2337680262552754 0.2552119039422288 0.0332894902075797 0.4031249405000047 0.0827639757037743 0.1774023486913087 )
( 0.2555219565615687 0.2773439072906483 0.0342945150665324 0.4183032913477424 0.079982845503443 0.1813555463757462 )
( 0.2772658427025929 0.299192788714672 0.0346309912146281 0.4332539443743932 0.0760556100627477 0.1845259834604614 )
( 0.3017538756083101 0.3222604925367813 0.0343380924902446 0.4459984028351302 0.0711781954262993 0.1875150320390037 )
( 0.3310059556660957 0.3470230112879475 0.0333649074266266 0.4550404576795551 0.065827954049171 0.1908729192859762 )
( 0.3659617577376882 0.3732520144385239 0.0309199482178555 0.4597580777751188 0.0591587695061765 0.1946988750304236 )
( 0.1520162210136423 0.1114566356878045 0.0365866159952075 0.2139261931572446 0.0530996827563239 0.2214551860182619 )
( 0.1472353870035134 0.1113694364493144 0.0277923702256652 0.2288083865504974 0.0494570516618235 0.1972920507471213 )
( 0.137389456039502 0.1116737438215998 0.018604074465658 0.2480659653934075 0.0472508232325651 0.1745991659241761 )
( 0.1282897138122163 0.1108590137711474 0.0144324220444053 0.2637383839882635 0.048402861692977 0.1587899051669919 )
( 0.1212858278824787 0.1119867336544812 0.0128462074177555 0.2796871307379546 0.053175983244578 0.1475008963287297 )
( 0.1183964802143776 0.1167443171345573 0.0129771261149087 0.2968709881676394 0.0602542878649451 0.1401405659431196 )
( 0.1200702157060829 0.1253658994961984 0.0146992378910774 0.3148672274610004 0.0675141937701467 0.1379885708877186 )
( 0.1259134336730302 0.1378151268468784 0.0173113469408458 0.3346501479560919 0.074255337890693 0.1400485349794987 )
( 0.1370542412562109 0.1548975963377504 0.0208020101481312 0.3536391511333781 0.0795986861982252 0.144579509013571 )
( 0.1527066205305406 0.1758411807770668 0.0247394620048982 0.371690852582817 0.0830277240435866 0.1507085802651256 )
( 0.172399957860582 0.1999492419890242 0.0283919148814837 0.3910001793073754 0.085050913481706 0.1582467272435956 )
( 0.1947817709253581 0.2256687397701241 0.0316250396559758 0.4102236451342227 0.0854236132279931 0.1656467576992176 )
( 0.2180270819121606 0.2513942783196287 0.0338974619405139 0.4292469141066324 0.0837783676609879 0.1713306335595326 )
( 0.2423891520481703 0.2776931429890806 0.0354810567291437 0.4479376072801426 0.0808887638546494 0.176312455561906 )
( 0.2658826167238475 0.3033035945727351 0.0366315949932944 0.4671850661032658 0.0775583510544862 0.1802128171600465 )
( 0.2903871416913872 0.3291445969781514 0.0367877034598408 0.4854059426290187 0.0731965630797156 0.1833263359936078 )
( 0.3194730194142721 0.3577159939878249 0.0358548523221296 0.5019188874464354 0.0674855264532807 0.1865910074324189 )
( 0.3549694660588527 0.3887515781087168 0.0341817985843161 0.5144096447973936 0.0611539092726888 0.1901868995930897 )
( 0.3985634148041315 0.4212635667588597 0.0312072756161511 0.5191520000319585 0.0534310672026384 0.1939985554630117 )