/*--------------------------------*- C++ -*----------------------------------*\
| =========                 |                                                 |
| \\      /  F ield         | OpenFOAM: The Open Source CFD Toolbox           |
|  \\    /   O peration     | Version:  2112                                  |
|   \\  /    A nd           | Website:  www.openfoam.com                      |
|    \\/     M anipulation  |                                                 |
\*---------------------------------------------------------------------------*/
FoamFile
{
    version     2.0;
    format      ascii;
    arch        "LSB;label=32;scalar=64";
    class       volVectorField;
    location    "0.0068";
    object      U_LES;
}
// * * * * * * * * * * * * * * * * * * * * * * * * * * * * * * * * * * * * * // 
 
dimensions      [0 1 -1 0 0 0 0];
 
internalField   nonuniform List<vector> 
13597
(
( 17.74343319631213 1.96405634455738 0.0946769155287707 )
( 17.751034962438023 2.0093277469770925 0.0981923468895317 )
( 17.778101700299324 2.1004642397701216 0.1034880645783564 )
( 17.817531307952255 2.218451352306973 0.1078215327677138 )
( 17.85147068381539 2.318962106809153 0.1100103511141465 )
( 17.876526452051472 2.4007049088344035 0.1099884805050917 )
( 17.90329327968804 2.482418401999594 0.1077141560051884 )
( 17.934551230354405 2.569304188682103 0.1054958470614938 )
( 17.968185562832755 2.655715447690551 0.102168706765899 )
( 18.001852883334813 2.742492433553126 0.0970805484037979 )
( 18.0382372533352 2.837737070769209 0.0918940677101983 )
( 18.07830473349731 2.93266360253468 0.0863034893528019 )
( 18.121237533346164 3.02553360044216 0.0805405004082474 )
( 18.164628719452068 3.1223815786681124 0.0756055538067513 )
( 18.20597077383714 3.220411408414412 0.0718494311897065 )
( 18.249728406287883 3.316446022255385 0.0693751209288815 )
( 18.29737401497892 3.408167951697477 0.0683519759719513 )
( 18.345471071004976 3.4987565365524302 0.067622792365966 )
( 18.39378174211204 3.5926193110891225 0.0666726892955608 )
( 17.62570867528683 2.0090587672085256 0.0999101435148579 )
( 17.618568984131443 2.0674231915902515 0.1013155043432692 )
( 17.626587782567615 2.1878633255760733 0.1014286919328681 )
( 17.638849830060565 2.326635311959236 0.0984850547522138 )
( 17.64451880346625 2.433659668942973 0.0946088934018459 )
( 17.6464617013698 2.532066633232271 0.0904775630582874 )
( 17.65111706674552 2.6316352209275338 0.085423186792565 )
( 17.656771790409774 2.73555097166871 0.0805523802078686 )
( 17.666082966131384 2.840457649447625 0.0758159892506026 )
( 17.674888048024386 2.94469553056632 0.0712641429249765 )
( 17.683335270277563 3.059177002033449 0.0675681009074682 )
( 17.690019180321883 3.179725962410621 0.0655155112620298 )
( 17.695556490895214 3.299972373137292 0.0643363373130772 )
( 17.704073981431137 3.421654891611924 0.0642529925476444 )
( 17.71333651189353 3.539623408512288 0.0667977750492039 )
( 17.72317336340643 3.650944761757966 0.0700476596593896 )
( 17.73299421270961 3.753237760377499 0.0737352949296186 )
( 17.743187292682297 3.8570657632017102 0.0783625697759664 )
( 17.75805697627881 3.9597516420436127 0.0825792740612142 )
( 17.506158710306043 2.044153363025412 0.0955548139636757 )
( 17.478154380416 2.113435738854223 0.0935103772756043 )
( 17.458741523869918 2.2537101533516664 0.0880574499246291 )
( 17.437711373079896 2.4063403911097225 0.0791398336898462 )
( 17.41342615950181 2.520539708482371 0.0714019696619317 )
( 17.392726174277744 2.6321739881510595 0.0652146592128622 )
( 17.3740936689992 2.74721664191147 0.0607882062253563 )
( 17.349538725069646 2.862930439986434 0.0579609094823489 )
( 17.328683333027136 2.98264091821847 0.0568163054156691 )
( 17.310088657747194 3.110418881867303 0.0584443758438597 )
( 17.28756828385347 3.2431095498008493 0.0615251758209409 )
( 17.264872095036026 3.3837651028866333 0.0668208345202517 )
( 17.2434453224372 3.527549981870687 0.0736670842584367 )
( 17.2241950220825 3.6639881893593143 0.0810162557156997 )
( 17.20846166970043 3.788461676787709 0.0891701451572538 )
( 17.19474598977065 3.8991702763796816 0.096017126801657 )
( 17.17875944355912 3.998657387013212 0.1020045662608143 )
( 17.1631940099844 4.0988065890630745 0.1081387905619402 )
( 17.155986525931237 4.202221499729479 0.1135710608265559 )
( 17.37578563661786 2.066802292181023 0.0874877987124849 )
( 17.323087867805235 2.146495511265931 0.0809518330719775 )
( 17.275825827986917 2.297840430564073 0.0709585520474661 )
( 17.223760878162516 2.4593797129377823 0.0598889057464658 )
( 17.168577238535565 2.583206731913344 0.05271465971757 )
( 17.119194539667994 2.702944179707006 0.0490939163294515 )
( 17.068399584409672 2.8302063200881897 0.0485119393250865 )
( 17.013793898328817 2.958842528942904 0.0519266095817961 )
( 16.96673572766134 3.091352208073073 0.0580759861762975 )
( 16.922464203796235 3.2327125074234937 0.0659290127733862 )
( 16.872470169661085 3.3813265504741143 0.0755381819731003 )
( 16.830300018725467 3.534580779612521 0.0867438088495852 )
( 16.793372626201013 3.687171090949006 0.0978603607089773 )
( 16.75399888017103 3.832538205406872 0.1083713440158736 )
( 16.716076856301896 3.957586490050952 0.1168452610377605 )
( 16.681107163414424 4.065241797791408 0.1227193797683382 )
( 16.64700105728215 4.163171086139381 0.1270727648139543 )
( 16.611000525258387 4.262688484330164 0.1299503648424118 )
( 16.57954684341934 4.372933132656156 0.1309280606227024 )
( 17.23647879616168 2.079588172271458 0.0772227942152599 )
( 17.16417589742308 2.1692338857736977 0.0671302563753274 )
( 17.08877789444082 2.331726890250228 0.0551639432120124 )
( 17.004797643653426 2.4959592209675456 0.0468032957480857 )
( 16.921805082670954 2.6243663769001326 0.0436423537414549 )
( 16.844260201767568 2.7512885264497284 0.0448251901203547 )
( 16.7628294399276 2.8867995508826203 0.0503219324806613 )
( 16.682350749207835 3.025271262692044 0.0589516994367793 )
( 16.610497853405672 3.1650194671563714 0.0703733086034777 )
( 16.53980749616793 3.313718270338419 0.0821430676687975 )
( 16.46870636898551 3.475937181912323 0.0945133463508379 )
( 16.404139619219468 3.6406612828768594 0.1069067574804774 )
( 16.342641234402397 3.80002623113163 0.1174977699311435 )
( 16.27996677659007 3.949296591439183 0.125504544014095 )
( 16.217425489447496 4.072589511446108 0.1297651283703428 )
( 16.156562247108948 4.1836330904255785 0.1315049637633819 )
( 16.098838769407447 4.289825211124365 0.1313457840084305 )
( 16.04258373033637 4.396563434379238 0.1293636176949116 )
( 15.987655995860308 4.516229014716831 0.1250944410783815 )
( 17.094470330651216 2.080888429686866 0.0653831051128745 )
( 16.999711015316475 2.18006774329069 0.054048793984797 )
( 16.89320138608255 2.355299082906712 0.0427449533917579 )
( 16.782097135837223 2.521148638732774 0.0385469845706101 )
( 16.676729122647803 2.652041897817035 0.0408504974841596 )
( 16.577289478230817 2.7849326539986468 0.047618029467658 )
( 16.475903986805324 2.923068425246257 0.0577815424418904 )
( 16.372889517123813 3.0657398343271365 0.0692881645143285 )
( 16.271006240604127 3.2130547825013074 0.0830218202089258 )
( 16.17241707017568 3.374962593247158 0.0969639613547273 )
( 16.0818380385544 3.544543313696336 0.1087439530296885 )
( 15.990287060014454 3.7139553963627647 0.1171442108914088 )
( 15.902978261973326 3.8793707213401687 0.12389710957661 )
( 15.820523818751 4.0298655850837335 0.1273097020050776 )
( 15.735131042476867 4.156553298315255 0.126621649457223 )
( 15.655349583980533 4.268662756009876 0.1240593187749504 )
( 15.57743287179632 4.377327792160307 0.1197798983487842 )
( 15.50039178717601 4.4878032178195095 0.1139762741120753 )
( 15.425153688538911 4.612312628358289 0.1061647766147683 )
( 16.942236099156403 2.0747000054020206 0.0533943230713378 )
( 16.82563652510625 2.1839531102829564 0.0428343835525889 )
( 16.694541694407754 2.366214440441432 0.0352073875090444 )
( 16.561483917082995 2.5310939115336573 0.0347943539419391 )
( 16.437389119209772 2.663720059820049 0.0413677675665493 )
( 16.314767667521625 2.7992640063067125 0.0527508206505532 )
( 16.192951039333067 2.942325213336233 0.0655204817528427 )
( 16.070790353619135 3.0899272162993854 0.0789986447619651 )
( 15.945269088460648 3.2417499845849296 0.0929090719547865 )
( 15.829992868417667 3.4094157226405866 0.1051704809752538 )
( 15.717098746369023 3.5850657811774616 0.1142876462485305 )
( 15.599425690617348 3.761471680453525 0.1191104386315989 )
( 15.490395679710025 3.927450686240365 0.1206914971974987 )
( 15.38649456655176 4.07650304534439 0.1193904704564189 )
( 15.281005649796631 4.208462886744719 0.1152168332837579 )
( 15.181218280986094 4.319963165422985 0.1098502425894585 )
( 15.084998017005908 4.427917429836741 0.1033940570059148 )
( 14.987860241112104 4.544196628513398 0.0951334715353848 )
( 14.89309037772515 4.673287038916368 0.0850120174239941 )
( 16.79056099494374 2.0634711220940702 0.0420128540286822 )
( 16.65460468858677 2.1773293903319395 0.0332465650244577 )
( 16.503583327413526 2.361423257140431 0.030856335050162 )
( 16.351176962218485 2.5257527373521658 0.0353428894345165 )
( 16.206719467368103 2.661544043537832 0.0451084821447398 )
( 16.064476724417624 2.8017033943492784 0.0580088023649139 )
( 15.923070307482426 2.949663855344454 0.0729693665920932 )
( 15.783861340962387 3.0978591523258125 0.0867965182502892 )
( 15.638689823730337 3.252032157985833 0.0980744701337119 )
( 15.504198043934244 3.426468634495554 0.1071795248927927 )
( 15.367019791271492 3.607877912430363 0.113367129585773 )
( 15.22970377968656 3.789486055772948 0.115816135909918 )
( 15.10135856726168 3.9574104481298775 0.1132327138328719 )
( 14.972865797507488 4.101763605728596 0.1076047689951232 )
( 14.85244461440798 4.227935677694112 0.1007707629138204 )
( 14.73441007473237 4.341161018076599 0.0931203333242447 )
( 14.619215390702214 4.454221274289352 0.0849694957820015 )
( 14.504930904051337 4.577497992127124 0.0754968873673285 )
( 14.393121957421986 4.712500613922391 0.0647532634719803 )
( 16.640700007415568 2.0415743795064736 0.0316915184349878 )
( 16.485027193988937 2.1562125133580903 0.0255531307715046 )
( 16.315726339268547 2.343020348905297 0.0278489523261028 )
( 16.14986707150134 2.507564272053844 0.0367367986396126 )
( 15.98743490220329 2.6485589846683943 0.049808625819979 )
( 15.831185238718191 2.7896645029544134 0.0633485395830606 )
( 15.67582388174104 2.9356312972845453 0.0780308636837639 )
( 15.5214920997187 3.0903968212123374 0.0908177753129786 )
( 15.360978247963509 3.2513227249849663 0.099710184472855 )
( 15.197202289089606 3.426808141706296 0.1058449963404381 )
( 15.038114706378668 3.611963693975533 0.1081389330843669 )
( 14.8856647152695 3.794114194265816 0.1075943229308865 )
( 14.734366503995776 3.963795740115725 0.1026101663997648 )
( 14.586333124515876 4.108634814654588 0.0945093794428608 )
( 14.451389487178169 4.231289617616167 0.0860794407026821 )
( 14.315942728234962 4.3483434769382 0.0769380317976915 )
( 14.181915735316435 4.465013214706522 0.0677892270001881 )
( 14.050318975669375 4.591652937151178 0.058499929653538 )
( 13.919574271043604 4.732680488131873 0.0484212878908348 )
( 16.49012771387802 2.0170827398948137 0.0230400053204088 )
( 16.31958592236165 2.138687572942917 0.0204269434726434 )
( 16.135882352411347 2.325997799092813 0.0264716853985358 )
( 15.958263550202224 2.4841234491499224 0.0383389515266137 )
( 15.785639934941814 2.627983929486665 0.0530970772397487 )
( 15.616941707806085 2.7660223425281183 0.0673462486460369 )
( 15.443078492048464 2.9074391467716385 0.0803868465613024 )
( 15.266247845253671 3.0652430300860023 0.0919174751454671 )
( 15.091452151871524 3.2284253380444072 0.0996024120928335 )
( 14.910131368395298 3.4057197207601084 0.1025977188035563 )
( 14.73407095711645 3.5976951776052823 0.1013758738909042 )
( 14.565078927123938 3.78421706216578 0.0974811034583601 )
( 14.395025878230133 3.951310458995945 0.0908968209574628 )
( 14.23334744929935 4.097320322663339 0.0819862154697326 )
( 14.079981514084212 4.222397688034664 0.0731280409282398 )
( 13.924998015170647 4.339711109927539 0.0641069269870577 )
( 13.769503023405516 4.458027114366249 0.0548095696194365 )
( 13.619030737891908 4.587304223076145 0.0453020760256201 )
( 13.471958268004258 4.735334404671829 0.034990615375981 )
( 16.351273630826523 1.991615911322668 0.0163772946228764 )
( 16.172821453348117 2.1186105983545795 0.0175552071919052 )
( 15.970634860009572 2.303704604585335 0.027193248426847 )
( 15.783257855336336 2.454104396373084 0.040339358390796 )
( 15.59969938119866 2.595175856304269 0.0551897147976421 )
( 15.414536735419755 2.732473672373537 0.0692279841039984 )
( 15.224953643897283 2.870104617399296 0.0810806297665578 )
( 15.032653086730072 3.022515281120685 0.0914010500696579 )
( 14.840614520410746 3.1910697524866176 0.0972414641426063 )
( 14.647041300248455 3.3731266869739267 0.0973768418639433 )
( 14.454282596584372 3.5666812430205312 0.0939246296102249 )
( 14.26329761804332 3.760581232688251 0.088099610058131 )
( 14.081327967590203 3.926382022697832 0.0804872210768623 )
( 13.9062552220329 4.072779125425662 0.071392023799826 )
( 13.73053810824889 4.201742384939371 0.0622266009446413 )
( 13.552976695675286 4.319206121720563 0.0528834156856249 )
( 13.378755281444304 4.440604849710356 0.0431203211210124 )
( 13.21427203436468 4.575105913879456 0.0330989876741922 )
( 13.051480343207013 4.73188349796322 0.0226449832050895 )
( 16.218133733671117 1.9607443442292276 0.0108390072126895 )
( 16.029797956746155 2.0902724900038767 0.0152341404599177 )
( 15.81490121645042 2.2744781488417964 0.0281202305238113 )
( 15.618952927050511 2.4171850521253173 0.0421564564307895 )
( 15.42349524616016 2.5509817352786017 0.0570551261656267 )
( 15.22298298226358 2.688219859808603 0.0702768381325751 )
( 15.025288926136474 2.830773676442799 0.081138234820625 )
( 14.820332004446264 2.984776510004869 0.0894720128661681 )
( 14.61238644337012 3.1553454507168355 0.092786556784364 )
( 14.403510035742665 3.3372650807889803 0.0912103698617431 )
( 14.19351254361671 3.5289642446449543 0.0864475435047214 )
( 13.983822370317512 3.7204842033650696 0.0797577418522363 )
( 13.783333782863837 3.891099025217423 0.0712724480441728 )
( 13.589041860979137 4.044953711710831 0.0614316288846557 )
( 13.391817473609333 4.1756088699552345 0.051613969269622 )
( 13.198429039754467 4.291636304797627 0.0416844984793685 )
( 13.01308680592302 4.416186746610151 0.0315310996375066 )
( 12.83557902602929 4.5619912355315 0.0222039032120655 )
( 12.658400756126625 4.730212429060199 0.0136903895224273 )
( 16.088302532581263 1.920923876818185 0.0056408645043668 )
( 15.891540635238716 2.0528483174396697 0.0128478538473241 )
( 15.67322791908989 2.2354975475595444 0.0282966138614188 )
( 15.467420945993789 2.3767759658364023 0.042854168483179 )
( 15.26270110002039 2.5108169069211344 0.0579150811684309 )
( 15.052194022437808 2.647689593545637 0.0711257425625817 )
( 14.842004482720355 2.7908196185905254 0.0807760359919688 )
( 14.620818718691924 2.9429025672794635 0.086429710344981 )
( 14.397236601891064 3.1095873766510262 0.0875165014769237 )
( 14.175832411546288 3.294818139302697 0.0848943568936791 )
( 13.948013882990614 3.493521658818941 0.0794866569050818 )
( 13.72172896014917 3.682808554191389 0.0716912233967317 )
( 13.49850299432362 3.8550249027566776 0.0619855530956227 )
( 13.279288161735671 4.01097538553849 0.0513333462003051 )
( 13.069473627605918 4.137835517601481 0.0414064385823548 )
( 12.86985218384286 4.25704319063593 0.0321745562885571 )
( 12.672862803645614 4.390437102632672 0.0230371991453247 )
( 12.4777174189905 4.54573676581116 0.0155494695614358 )
( 12.278801499065697 4.728300938057348 0.0102034882404544 )
( 15.968843159415655 1.8721672641462028 0.0021673434333546 )
( 15.77086701723433 2.0062188627398325 0.0121765195463863 )
( 15.5437647171 2.188664842325309 0.0289891683481102 )
( 15.3291752066615 2.329610212482617 0.043251178272424 )
( 15.113512175786152 2.464398607082745 0.0584259910029926 )
( 14.89616642607522 2.5974780437342826 0.0713152215159715 )
( 14.673772818644377 2.738194937560611 0.0794313970044109 )
( 14.444193951212682 2.889144159170786 0.0827933324986212 )
( 14.204565552405697 3.0542680583587534 0.0821769075440026 )
( 13.963772253703434 3.2424295693995555 0.0788852417877895 )
( 13.71759188533355 3.4456753491857848 0.0723045840019267 )
( 13.46997176444426 3.6420718085962944 0.0635467712793598 )
( 13.228983053839205 3.818480437442031 0.0535796595781821 )
( 12.996206030025231 3.968062589231603 0.0427943489437547 )
( 12.774782153380476 4.094130792223727 0.0331970763077668 )
( 12.560102471566916 4.224077784946494 0.0250734255306194 )
( 12.34813100967726 4.37235343040093 0.0179301506043928 )
( 12.129269848782172 4.532514312285906 0.0129437772924286 )
( 11.899736177756528 4.722299368365983 0.0097711054510573 )
( 15.862205044043757 1.822980302392846 -4.999744481950666e-05 )
( 15.658588803310938 1.959253237737484 0.0125048286417509 )
( 15.413919591535333 2.1439938289847245 0.0302909783562821 )
( 15.191470425325672 2.278076392291285 0.0447282485230846 )
( 14.97091716692152 2.40826816892972 0.0595463135988777 )
( 14.748647625998618 2.5394164215330277 0.0704933245616206 )
( 14.514592160895477 2.677741535456379 0.0764901309951125 )
( 14.27149727352762 2.8313148760668745 0.0787413547797128 )
( 14.020994177326497 2.9966575963029616 0.0779593306247501 )
( 13.76345182154082 3.182708586763065 0.0739272585551922 )
( 13.49561147377722 3.389583628481178 0.0657339175469034 )
( 13.225504716340922 3.5894588240300207 0.0560401227778929 )
( 12.966988508613747 3.7709051811406633 0.0459431654825254 )
( 12.7257876308672 3.919910650633792 0.0355649992745157 )
( 12.494702212344375 4.049492559962488 0.0271401179833874 )
( 12.264053369598576 4.188329374315985 0.0203070418773318 )
( 12.027169171831838 4.345456454008104 0.0152499104670435 )
( 11.780757712152187 4.519597211775611 0.0118324497320998 )
( 11.543644182854798 4.733137594003432 0.0078359472152628 )
( 15.764485589179648 1.776020269495889 -0.0025502759696858 )
( 15.553853320581329 1.9121679305899943 0.0113287950412111 )
( 15.298227162817245 2.0944601358498693 0.0301453002482933 )
( 15.067024699390853 2.220385386189429 0.0457274207975126 )
( 14.841139804348222 2.3426035359327426 0.0594897077879296 )
( 14.611615146410106 2.4787776059460715 0.0685846720431139 )
( 14.36768724505866 2.613748711244172 0.0731172272655112 )
( 14.107643648028548 2.7620600655939933 0.0746707355536997 )
( 13.8427595710589 2.933468422170292 0.0737173878176708 )
( 13.56940135604954 3.118911155638452 0.0680047979961635 )
( 13.276926604039506 3.3324863257361867 0.0590721493394895 )
( 12.984201872728324 3.5393433414806674 0.0488880116747204 )
( 12.717210059333055 3.716262842548965 0.0387069799218735 )
( 12.471958467587456 3.865736827565646 0.0304105080931199 )
( 12.229071588396984 4.003511257136904 0.0235661252629877 )
( 11.978191487407337 4.150160989379505 0.0176289270821759 )
( 11.713076795802785 4.314988243040981 0.014276293324936 )
( 11.448663597313365 4.513123800295968 0.0098447261826324 )
( 11.2364853747704 4.777414653872493 0.0042394037354017 )
( 15.67626916117556 1.7282478714948768 -0.0039022320928754 )
( 15.453669910603615 1.8610508944857087 0.0107495714305521 )
( 15.19280106403276 2.0418888225559333 0.030351423652671 )
( 14.96006057197352 2.1631225581102176 0.0462035932076493 )
( 14.726127378283095 2.2817251469348414 0.0589787395138468 )
( 14.483059743314952 2.416372663275184 0.0670017110904238 )
( 14.226629364410137 2.545661561844352 0.0708784856237097 )
( 13.960809341495445 2.692314484031426 0.0712069365707002 )
( 13.67989042256303 2.8678597785711704 0.0684262158009298 )
( 13.38311706773162 3.050558274192673 0.0619064298696383 )
( 13.079059602372434 3.261278344531919 0.0531701293485853 )
( 12.77220754986882 3.483323625365601 0.0431162244317425 )
( 12.49428315932736 3.662455490532591 0.0345433165159404 )
( 12.236088801062785 3.80949772270299 0.0278907885071126 )
( 11.971592947324236 3.955626532761343 0.0211220512433488 )
( 11.689790115236065 4.1081240493198505 0.0159925295164877 )
( 11.40674583625421 4.290377604339817 0.0119088160488961 )
( 11.15526606228596 4.527392901959075 0.005768978760268 )
( 10.98282144465422 4.84758019631628 0.0022699740944749 )
( 15.591381252309874 1.678375117400781 -0.0040845854914012 )
( 15.36195815971418 1.8073836190308357 0.01138928498872 )
( 15.095387887309942 1.9832185532301936 0.0311753357613514 )
( 14.86218395623446 2.100359120480608 0.0461101063883624 )
( 14.62215233348966 2.2211776226838498 0.0578828013474446 )
( 14.36680429330736 2.3529134460650063 0.0647372051709637 )
( 14.100506501049528 2.4725450989641327 0.0679337455266567 )
( 13.823760348665711 2.621915630106149 0.067449529107833 )
( 13.52507349108386 2.8021228817422266 0.0634650387925375 )
( 13.211119538841247 2.988816970652976 0.0566988115719074 )
( 12.888282135800011 3.193987811104506 0.0481548507335318 )
( 12.56769839113182 3.4077687280915114 0.0394735614470752 )
( 12.278933625887804 3.593711833358876 0.0322730998519001 )
( 12.000078722356257 3.751076186860021 0.0257240214438154 )
( 11.71012698531457 3.897111906121802 0.0197381867612863 )
( 11.409244920384303 4.058961152114315 0.0152429584023383 )
( 11.121542544849657 4.2698286944561925 0.0093129040054226 )
( 10.903851024334289 4.561050982117073 0.002989302101025 )
( 10.734678078657936 4.919211112134753 0.001143796142517 )
( 15.513290255034306 1.6256111227674552 -0.0045786613667314 )
( 15.280328369887824 1.7499011416645645 0.011458664479602 )
( 15.00371991665167 1.9171498523081607 0.0316718730762207 )
( 14.770157056043944 2.034322717980198 0.0456136977806706 )
( 14.523314270319464 2.153046556656831 0.0556948332388549 )
( 14.254477502899263 2.283622546832118 0.062150970655078 )
( 13.988206333515327 2.403785823414918 0.0648915411536022 )
( 13.697385682548218 2.5460356903493704 0.0635828803772026 )
( 13.377677584996183 2.726860159193625 0.0589832434418335 )
( 13.045283751060753 2.9220144600891818 0.0516677500812595 )
( 12.699416445995258 3.1317543573140254 0.0433871496447877 )
( 12.372828106415094 3.336485683099309 0.0359029981711761 )
( 12.06645016764324 3.5188290975218925 0.0286489574337538 )
( 11.76251254082635 3.6844171721889274 0.023028890502529 )
( 11.45843690131445 3.839893136692541 0.019062509064869 )
( 11.151770204176058 4.025476172923608 0.014832958181647 )
( 10.871952245131824 4.276143260781146 0.0078857622156824 )
( 10.67294319457863 4.611341062786544 0.0018226830345153 )
( 10.40188620942164 4.940877944861039 -0.0011875621071776 )
( 15.448064179329142 1.570290235398596 -0.0051654777555223 )
( 15.204396667321063 1.686780113643123 0.0106059228064558 )
( 14.919190591601527 1.8485611031771327 0.0313572327763114 )
( 14.681348549854205 1.965601201275311 0.0448039930630176 )
( 14.428981659428878 2.083909503787396 0.0537220584855743 )
( 14.151328928927263 2.2166401078333173 0.0596113436956836 )
( 13.87335064344959 2.3368232888363845 0.0617026415116649 )
( 13.57495797139216 2.4713090038591625 0.0602594894681294 )
( 13.243968755412611 2.645870343367496 0.0550686254563278 )
( 12.890560766593412 2.839340261647844 0.0471892110297075 )
( 12.528373490277366 3.0581072276681134 0.039062631577932 )
( 12.191648548994046 3.269982583038858 0.031515840702889 )
( 11.862273106405942 3.448859093877715 0.0245644834156984 )
( 11.53880274320712 3.612057676031118 0.0199309066971261 )
( 11.217564194231814 3.793755758305658 0.0177175417080433 )
( 10.906052666182523 4.008290414327921 0.013175866348921 )
( 10.647235208704387 4.297404959015142 0.0052306773581735 )
( 10.404109421565993 4.655425859326443 0.0023863858453823 )
( 9.937607928946353 4.886999272278751 -0.0022677391209025 )
( 15.383746762890404 1.5091056842031023 -0.0059867354227591 )
( 15.13768983091196 1.6247483253677366 0.0090899274433182 )
( 14.849504916451156 1.7802320415193438 0.0292036814869757 )
( 14.600968655928138 1.88928234821228 0.0423562481005832 )
( 14.342576964941088 2.009475901060968 0.0514694277891228 )
( 14.06067565353324 2.146328310489964 0.0566624419194725 )
( 13.768630590579807 2.262774481392855 0.058044144452914 )
( 13.46289332540756 2.391871038403794 0.0564583088925104 )
( 13.11343920283004 2.5665706590931645 0.0510854015357401 )
( 12.7433484814906 2.7607932902276238 0.0435713383751744 )
( 12.367781749711506 2.979417562985054 0.0355457041596318 )
( 12.007056854308162 3.196205263777504 0.027807321676135 )
( 11.667124145909234 3.382875903448447 0.0225080168532819 )
( 11.3375479605099 3.548282818791718 0.0190351919767087 )
( 10.997533464165889 3.749863986458689 0.0156989503768899 )
( 10.675961428376432 3.999251946302688 0.009386397733234 )
( 10.424004756473764 4.3212073869713405 0.0038365145943068 )
( 10.087854776579931 4.670143146397223 0.0029807453083027 )
( 9.314053475196046 4.726860677468765 -0.0028911084834408 )
( 15.322866206066598 1.44640292654914 -0.0075685559771614 )
( 15.076265560118568 1.5634392674705206 0.0081078310565616 )
( 14.785011405633217 1.71636803566384 0.0275914624670845 )
( 14.532050146454994 1.8215043817722 0.0399623311974971 )
( 14.263157402882351 1.938449061700868 0.0495095633086995 )
( 13.966461747803052 2.065272019109511 0.0544431130069835 )
( 13.665304008544862 2.181024896271301 0.0545493055095515 )
( 13.353368253598948 2.30823490375629 0.0518104021195711 )
( 12.979240351116887 2.483937753726785 0.0467516885180085 )
( 12.593594387275571 2.6859783124128715 0.0403659299768124 )
( 12.215096956243018 2.900658264689646 0.0328586941120983 )
( 11.844498768422444 3.119469041962526 0.0257291723403231 )
( 11.49179466838485 3.316679923344727 0.0216700900181351 )
( 11.137424622830256 3.491032834344343 0.0194099245242155 )
( 10.788948620390295 3.703504787479123 0.0154017653490208 )
( 10.469073792767968 3.9874912935900775 0.0087376487593922 )
( 10.169704902944154 4.338300714042844 0.0043037523943428 )
( 9.749365752483314 4.658043367050856 0.0007948108920609 )
( 8.47647298742728 4.412737126219611 -0.0030743668493201 )
( 15.269423131850097 1.390067771259839 -0.0086379880995522 )
( 15.016936438666017 1.5032017695845952 0.0080392454870899 )
( 14.722172540007056 1.6518831153452802 0.0268994644229977 )
( 14.469034360364027 1.7571714763250532 0.0387883641456566 )
( 14.189951060240384 1.8682291784438256 0.0475860740185609 )
( 13.883828353560506 1.984498742056508 0.0516316925835082 )
( 13.573602863895928 2.105320370076032 0.0513484388028828 )
( 13.245859217534775 2.2398246218656985 0.0487024654359957 )
( 12.852666648351992 2.4087371387341614 0.0437918277330821 )
( 12.44723161412879 2.6127894386311152 0.0376334885818418 )
( 12.062356414068994 2.8230586895456344 0.0307884547474212 )
( 11.68982349066516 3.0297822059498234 0.0241180813620954 )
( 11.320378816571589 3.2280385332038755 0.0211774507088193 )
( 10.943428270106612 3.421207911113348 0.0183533251059403 )
( 10.584054903235517 3.6572016134535934 0.0152550489117654 )
( 10.257580891137762 3.97060273355749 0.011947622993975 )
( 9.883130442585124 4.333254122326199 0.0071816925953924 )
( 9.22488141660392 4.5303930722833865 0.0030591440866305 )
( 7.633309569955706 4.061196804522355 0.0005974718233947 )
( 15.22250522792132 1.3309485883292949 -0.0092610430374647 )
( 14.965656375055223 1.4431937198080402 0.0075753661660384 )
( 14.66230650926284 1.5882015850020077 0.0259019051724832 )
( 14.405288910663284 1.6877712887746197 0.0370485522181928 )
( 14.12113459645787 1.7987037825879149 0.0447944665712057 )
( 13.815139215143972 1.9172932885295733 0.0486033686949825 )
( 13.500981379240152 2.037571209099148 0.0489957535190985 )
( 13.150662912102849 2.1700207175484376 0.0465023120498816 )
( 12.74603407238752 2.3371408019569766 0.0414435809559208 )
( 12.332309710240011 2.53916998521817 0.0358460329698682 )
( 11.929219090096192 2.74780273297404 0.0291803527134311 )
( 11.531485309318697 2.9463528129639918 0.0225095946619959 )
( 11.14196950196798 3.1392728858705707 0.0186799294814457 )
( 10.753498341047866 3.3455577281956725 0.0146759811067543 )
( 10.387279091030749 3.6124314891558313 0.0122941823102487 )
( 10.0363388329905 3.962497561718864 0.0103086537311222 )
( 9.592435521642283 4.312701625255079 0.0081932188935262 )
( 8.617556775406342 4.315099205513774 0.0073427018102422 )
( 6.886127879228081 3.725691368155422 0.0026442800804816 )
( 15.181029469235323 1.2686980544644322 -0.0099461291349472 )
( 14.923909047794815 1.3809321492552304 0.0064178230812434 )
( 14.611911557175432 1.5255189004977174 0.0242207509318994 )
( 14.346027211726753 1.619759884156624 0.0348573169043374 )
( 14.054095891727805 1.726337249723658 0.0421441114428191 )
( 13.744337463490172 1.8448226061970712 0.0460315541727068 )
( 13.422906138714852 1.9541869182480631 0.0460976889262629 )
( 13.060802891868953 2.084988933366892 0.0439695224570076 )
( 12.65707768707916 2.26222066766625 0.0392981952675962 )
( 12.23512070642049 2.461710645445069 0.033431976724241 )
( 11.809003329516894 2.6728461767826643 0.0267239600366952 )
( 11.3852744430771 2.865904646903248 0.0207587727867991 )
( 10.977481989662229 3.055644101519598 0.0149463799934096 )
( 10.567713836590524 3.2797024947654845 0.0105368051292566 )
( 10.188880388240852 3.567378449706082 0.0102005607067852 )
( 9.787753063514206 3.9352984504348183 0.0075757244999199 )
( 9.248094956397892 4.243422168744353 0.0051871710224674 )
( 8.082423738636782 4.093805832354334 0.0071848020298546 )
( 6.174482831145549 3.3716805794322715 0.0026523135846403 )
( 15.144777288279764 1.2146791410045077 -0.0105952683582877 )
( 14.884528493568943 1.321573492377544 0.0055388804809303 )
( 14.567027684697756 1.460196295009918 0.0225731166512338 )
( 14.294513802380807 1.5532145216514612 0.032777011704561 )
( 13.994617432413166 1.6529971714030822 0.0400226056493673 )
( 13.680422041555978 1.7630513516490267 0.042795675382353 )
( 13.345197369344447 1.8676855114001865 0.0424856260906557 )
( 12.97575162295518 2.0060958247784253 0.0415317246036578 )
( 12.571965530836174 2.186716816668041 0.0374557109418562 )
( 12.128703771395609 2.379784461446369 0.0306653985318878 )