/*--------------------------------*- C++ -*----------------------------------*\
| =========                 |                                                 |
| \\      /  F ield         | OpenFOAM: The Open Source CFD Toolbox           |
|  \\    /   O peration     | Version:  2112                                  |
|   \\  /    A nd           | Website:  www.openfoam.com                      |
|    \\/     M anipulation  |                                                 |
\*---------------------------------------------------------------------------*/
FoamFile
{
    version     2.0;
    format      ascii;
    arch        "LSB;label=32;scalar=64";
    class       volSymmTensorField;
    location    "0.0045";
    object      tauij_LES;
}
// * * * * * * * * * * * * * * * * * * * * * * * * * * * * * * * * * * * * * // 
 
dimensions      [0 2 -2 0 0 0 0];
 
internalField   nonuniform List<symmTensor> 
13597
(
( 0.1484117212953409 0.0470681058220056 0.0079715511585044 0.0513388635215705 -0.0197078136435452 0.1202014788562586 )
( 0.1466744291071907 0.0454804533175466 0.0088070632429944 0.0496625390431734 -0.0198788717407271 0.116446065282801 )
( 0.144435667959219 0.0416879523554337 0.0094235326830282 0.0482397805915413 -0.0200034347943336 0.1104481525362468 )
( 0.1414122012699321 0.0365868319981214 0.0093421844709946 0.0505564941477171 -0.0199726495366216 0.1050234755175812 )
( 0.1396743319645638 0.0330335628599016 0.0088559731101937 0.0544702019797186 -0.0197776880110286 0.1016558146647102 )
( 0.139870551083509 0.0313688526919007 0.0085933448052562 0.0577924076960193 -0.0194174061402659 0.0999809100203562 )
( 0.1402121574388174 0.0303172033846113 0.007843065318233 0.0613283562150795 -0.0189036504040503 0.0991084425845156 )
( 0.1411199097501118 0.0299134558616965 0.006358616048563 0.0653775816945598 -0.0185412689776864 0.0991823667745555 )
( 0.1425333998595289 0.0302633429717909 0.0052982377782003 0.069420079188574 -0.0181518565813041 0.1008920704145345 )
( 0.144096093936849 0.0311493539777687 0.0045755892452495 0.0732065694208373 -0.0175988878792227 0.1034007162269114 )
( 0.1469965690600447 0.0328498728671942 0.0042274814513733 0.0768331122011197 -0.0166151493778982 0.107446338826253 )
( 0.1505702436698541 0.0355556770949122 0.0045303116349812 0.0805206184983889 -0.0148728102169318 0.1133709414409079 )
( 0.1545564738354506 0.0388391351372272 0.0049675432560364 0.0841206845718446 -0.0130827100050737 0.1196638718293363 )
( 0.1588900283580261 0.042598637089503 0.0058831864439708 0.0872857801465303 -0.0107540062309115 0.1274632059340263 )
( 0.1631940291495553 0.0467754643259294 0.0071986412847708 0.0901445856269445 -0.0074476903265093 0.1370322633861966 )
( 0.1670854213293962 0.0510177936087102 0.0086396688924687 0.092482281362984 -0.0039966655985659 0.147049449248609 )
( 0.171048225186743 0.0550101560604843 0.0103589881302774 0.0938289314999401 -0.0010721320775375 0.1566106636039628 )
( 0.17576470713979 0.0589545974502 0.0119999506404987 0.0948866511892156 0.0017903055004693 0.1653453754825358 )
( 0.1805276971970041 0.0630575806164718 0.0140421644118327 0.0966130137393081 0.0054167385675483 0.1754816127168153 )
( 0.1354179873452608 0.0411260901161159 0.0154417987619206 0.0475652453149144 -0.0187079815700447 0.1163975646825423 )
( 0.1315285500662882 0.0380780414367817 0.0153704309377429 0.045010671918564 -0.0188995031820925 0.1124383319108776 )
( 0.1276311140348918 0.0344743735050692 0.0148761545698288 0.0435268955378411 -0.0183563520446907 0.1060337417538842 )
( 0.1257746095647713 0.0321598256728963 0.0139392410472889 0.0465401073026763 -0.0168930430731217 0.1030783457544579 )
( 0.1257372777841537 0.03189471225081 0.0129846660344984 0.0503474807709995 -0.015169815514757 0.1026637719747859 )
( 0.1269528150141363 0.0328170257087434 0.012747898141786 0.0546466186002866 -0.0135414381621725 0.1038603570020234 )
( 0.1296426291235328 0.0348498238108194 0.0128665804087668 0.0597086672240603 -0.0115146271188795 0.1065815547106234 )
( 0.1323756438240988 0.037943475788372 0.0126119469421292 0.0657135194072524 -0.0095201412655766 0.1110676571833764 )
( 0.1354251027555393 0.0417636609793992 0.0128595847527828 0.0721172107443795 -0.007376719976451 0.1172158171432024 )
( 0.1391915687871739 0.0461374554430682 0.0140396429629388 0.0783175742361594 -0.0052983713154117 0.1238068309057025 )
( 0.144198948505162 0.0513512553875835 0.0154651960705455 0.0850253630742379 -0.0028954908181244 0.132434812381517 )
( 0.1494419200325967 0.0569780605460781 0.0170034343326128 0.0920312140386394 0.0002547744065097 0.1434364150872401 )
( 0.1551295724791501 0.0628418148237354 0.018358653385541 0.0986709814590209 0.0029472989855748 0.1538487667609011 )
( 0.1616552523487881 0.068992015812479 0.0199389975189391 0.1047181651597067 0.0058689439602533 0.1647077403833899 )
( 0.1673000160101928 0.0744927551697299 0.0213847163324728 0.1098653640989917 0.0091983730879266 0.1761049536817714 )
( 0.1716297337124488 0.0789560722351371 0.022174677547177 0.1142708015767665 0.0119177643191413 0.1860978452597972 )
( 0.1751250837497363 0.0825191031138091 0.022746710555744 0.1171429448154359 0.0140059000617788 0.1944569494230923 )
( 0.1792681182325191 0.0855736233868397 0.0234114757312492 0.1189662028910567 0.0155585419200266 0.2012841185430199 )
( 0.1836733042441892 0.0881059982150431 0.0241373712527404 0.1208966361499729 0.0170426302459761 0.2074524438498469 )
( 0.1228900404139994 0.031239691019247 0.0171377142243501 0.0451659501650998 -0.0191493978702094 0.1203510505478233 )
( 0.1199541174516741 0.028664901255718 0.0157561935854526 0.0429253263384415 -0.0193643952609024 0.1176063465294371 )
( 0.1192679433417468 0.0281581974588155 0.0136487744321482 0.0425731024411748 -0.0179588627562997 0.1122270348729053 )
( 0.1209089138015239 0.0300259356567653 0.0115884258442597 0.0465673443832234 -0.0149479315104051 0.1119520615706697 )
( 0.1233153189847845 0.0332247777586216 0.0101775201315025 0.051227641432306 -0.0116533948759423 0.1145188778408889 )
( 0.1265744615474692 0.037448521051131 0.0103894183061783 0.0573331482987555 -0.0089413304155068 0.1184649356874322 )
( 0.1302626683770542 0.0424488364669493 0.0115625862094022 0.0642584883758318 -0.0061285643856192 0.1241049664413229 )
( 0.1337240817269215 0.0478766443562538 0.0129722648231647 0.071931475795388 -0.0032188439116243 0.1324352871882295 )
( 0.1376599435453769 0.05386597258045 0.015310271965847 0.080340418081426 -0.0004601857087542 0.1425281298708066 )
( 0.1423126965964327 0.0602713297190846 0.018508512729861 0.0888677442373647 0.0021243654692164 0.1531114022572958 )
( 0.1472257781433504 0.066689931889182 0.0217284144887036 0.0974777286911746 0.0049424019246714 0.1648477483351662 )
( 0.1523230295849415 0.072676451126491 0.0246578173389462 0.1060096208698476 0.0079606267720496 0.1781138112131093 )
( 0.1580671150581921 0.0781969736283014 0.0277771266661803 0.113510394560956 0.0106488058119317 0.1909484796663003 )
( 0.1637327014486531 0.0829195067385148 0.0308888588347798 0.1194666166057667 0.0131788052402514 0.2019958429984306 )
( 0.1681860316803499 0.0862491969989871 0.0336107023633545 0.123798684939595 0.0155119752801198 0.2110195562374362 )
( 0.1716317548843936 0.0883547135886224 0.0358476664221035 0.1267918061022095 0.0172928974509837 0.2177606919908872 )
( 0.1743114374369976 0.0894893598506616 0.0378813800498233 0.1284695473104451 0.0186515817007899 0.2224331481495529 )
( 0.1767234505570125 0.089933061573912 0.040144723990917 0.1291275599447624 0.0197854891695001 0.2254137707968607 )
( 0.178796275017291 0.0896272934634601 0.0421402066766266 0.1290692609392997 0.0205693464040046 0.22642646307674 )
( 0.1171680053693855 0.0230441289559987 0.0155245711091215 0.0453570293417132 -0.0203080110010943 0.1293309069959528 )
( 0.1171087791307313 0.0227007904644742 0.0122555745129592 0.0439908399414874 -0.01971615777087 0.1275028807426264 )
( 0.1187510020275966 0.0261425641227934 0.0081372106674018 0.0448988764677628 -0.0172021035101033 0.1225246223903542 )
( 0.1213244148817652 0.0318698884239365 0.0057078669076444 0.0504561025449104 -0.0130416537482017 0.1239964712640196 )
( 0.1244273712474313 0.0376186350880483 0.005532735336337 0.0567244971577545 -0.0085831567292261 0.1292226986042585 )
( 0.1276687150779153 0.0436756256835441 0.007542346545153 0.0640813704594776 -0.0047256919924736 0.1359540476731482 )
( 0.1306645293930623 0.0504170337279811 0.0109944499233306 0.0726595156423596 -0.0010470017755007 0.145026161961775 )
( 0.1344506236011251 0.0570886590129818 0.015239790955529 0.0819122962341254 0.002724142635825 0.1567203556888926 )
( 0.1391046604882725 0.0637434267157273 0.0207423567482172 0.0914781321632848 0.0061392268775842 0.1696081909241312 )
( 0.1443268935157286 0.0702776887193611 0.0267320303069574 0.1011248211189862 0.0095650245223771 0.1836906393279605 )
( 0.1494175074950081 0.0758894771685741 0.0327719070412564 0.1100678297686259 0.0130556105279407 0.1975716307875517 )
( 0.1551991799199483 0.0802912145715689 0.0386529118042779 0.1177710407957645 0.0162282044269885 0.2104099615728795 )
( 0.1614519588995059 0.0834747752443439 0.0444920629561948 0.1233095073679605 0.019036535941907 0.2208250743699159 )
( 0.1666769139307439 0.0856086660085645 0.0496927822795539 0.1272668005628284 0.0213820491561017 0.2286322429857349 )
( 0.1708162652853685 0.0864285054688872 0.053708224418007 0.1296780041179986 0.023353585884834 0.2333430112315471 )
( 0.1742756519481684 0.086306552319588 0.0569103406693801 0.1304485162113734 0.0247831044841226 0.2352154880495062 )
( 0.1768436221927195 0.085424171786251 0.059503592940129 0.130082241785887 0.0256404696199351 0.2348953971731724 )
( 0.1793671607111049 0.0842749536518073 0.0617756111054294 0.1292096060436738 0.0262948592121839 0.2326487126666957 )
( 0.181720663491704 0.0826016776701317 0.0635394019215381 0.1276031204523991 0.0266130560196305 0.2283554097241191 )
( 0.1158737812861462 0.0190945205337055 0.0103640312888742 0.0477980127629679 -0.0211521368955724 0.1400858907809044 )
( 0.1172207498653366 0.0216454932784254 0.0052597450393043 0.0474360431263693 -0.0198506420226849 0.1364977561521532 )
( 0.1188410194324583 0.0284630854430859 0.0010334449803838 0.0498787168395885 -0.0155926676129197 0.1319297266240429 )
( 0.12072242815727 0.0367039760445746 0.0004286955283784 0.0571126312147375 -0.009807806566517 0.1359609648217286 )
( 0.1231900296615075 0.0438401256314409 0.002890238858561 0.0647559869080646 -0.0041058848995603 0.1435405078839267 )
( 0.125964968989128 0.0510416096510581 0.0079391268654369 0.0733565624836812 0.0013193211146689 0.1535763913725426 )
( 0.129789658141617 0.0588433911611284 0.0154219815810652 0.0830913629783107 0.0067381085819888 0.1661110307293279 )
( 0.1346537810268155 0.0660756964045715 0.0239295973690094 0.0933789438545744 0.0119477019241344 0.1808169764143961 )
( 0.1402317460343524 0.0722879467222506 0.0325231934850666 0.1029932276825107 0.0164592614848268 0.1958191169062116 )
( 0.1465246847906661 0.0778165122888108 0.04121728170857 0.1120434919701 0.0205429102547033 0.2104097114372027 )
( 0.1535528867912636 0.082363652486287 0.0496672155774812 0.1202206487326743 0.0242489013627709 0.224058815234601 )
( 0.1609249063271183 0.0852217258873202 0.0568519305372227 0.12628122674567 0.0273798530421874 0.2351247150981805 )
( 0.167856413612968 0.0866601938713869 0.0625526053367429 0.1300767404222395 0.029786250022025 0.2419693393184899 )
( 0.1737106002363146 0.0872207945789803 0.0669761250600015 0.1324098267724053 0.0313102887281824 0.2452974188240589 )
( 0.1782885497212955 0.0868624177359858 0.0699055692949978 0.1331010612279667 0.0322259079277646 0.2456093602606834 )
( 0.1818636415827207 0.0860503921871797 0.0713807887658994 0.1327316016332602 0.0325160277328002 0.2433612196030894 )
( 0.1840918362379721 0.08462715571213 0.0716588383804427 0.1317350232096759 0.0321279623149897 0.2384439636371915 )
( 0.186072615609737 0.082957551669658 0.0712522603302239 0.1303435599756918 0.0313614767399894 0.2314037322476461 )
( 0.1877745458326631 0.0809828703451461 0.0701195826731002 0.1282097134215204 0.030068448980812 0.221738374538817 )
( 0.1149446925042555 0.0192711911634818 0.0025493389299287 0.0522364123725836 -0.0215299621498912 0.148526396964092 )
( 0.1151193642746301 0.0245690991830941 -0.0035338002565676 0.0528789516219968 -0.018886790118721 0.1431683030538029 )
( 0.1156467989957805 0.0338095504089508 -0.0051847423028564 0.0568352438507066 -0.0121021531401972 0.1397471153819147 )
( 0.1177240924985501 0.0434585677065969 -0.001270802042492 0.0653203444627071 -0.0041189756322841 0.1466499586698703 )
( 0.1205379040634822 0.0514151999222629 0.0056581507395371 0.07388254434457 0.0032072969296118 0.1563513142298163 )
( 0.1245910798675415 0.0596667001686411 0.0152462974187991 0.0836281466407246 0.0101127983623986 0.1694847830479349 )
( 0.1303828730157502 0.0678871521700269 0.0264260733015046 0.0940431020212967 0.0169032878842851 0.1850342782171178 )
( 0.1368066439754366 0.0748822158533414 0.0379863402418075 0.104386997746442 0.0230787751959547 0.2018665871202756 )
( 0.1441299349718732 0.0808648626439171 0.0489816523910152 0.1137583683478671 0.0285661064873926 0.218601337047286 )
( 0.1523168286336039 0.0858733139398278 0.0586126437935739 0.1223438422956938 0.032865305076545 0.2335730350260626 )
( 0.1603889130988135 0.0893178969918497 0.0661067064578257 0.1293566123055747 0.0356030933662167 0.245406859108914 )
( 0.1676060887425941 0.0911880628817055 0.0709996959087069 0.1341740092654046 0.037467300685153 0.2525870251858232 )
( 0.173436579927397 0.091572697938684 0.0734570636817157 0.1368685677199518 0.0378195131317753 0.2548986574871527 )
( 0.1776980872634758 0.0908969764159903 0.0742432202678282 0.1379312062868129 0.0369058438483588 0.2524172688803797 )
( 0.1805024438179303 0.0899818108702557 0.0735955192034133 0.1380520628335064 0.0356562339778457 0.2473274289806195 )
( 0.1820962170751855 0.0889621843875382 0.0717571384393289 0.1374882969481146 0.0340926896834108 0.2402566692652495 )
( 0.1828799330343189 0.0877218283437807 0.0691667698901824 0.1366399897533622 0.0321575646588473 0.2306455333983488 )
( 0.1831545354512226 0.0863594897151147 0.0660815366337607 0.1354962045397542 0.0298911614522381 0.21887708355847 )
( 0.1833260641557123 0.0848557604521011 0.0622415984869195 0.1336497719015406 0.0271581956913065 0.2045798304717099 )
( 0.1113321832455283 0.0224742065811125 -0.0070468677545803 0.0582803047993591 -0.0205643731596645 0.1537343493034765 )
( 0.1105106938997691 0.0300053747787751 -0.0111752235999022 0.0599434356132897 -0.015845401008549 0.1477866684281053 )
( 0.1115383499760133 0.0408762470339284 -0.007381441388579 0.0651510244322513 -0.0064541131418032 0.146676554296457 )
( 0.1149936617423472 0.0514930444333783 0.0025277326662317 0.0744656973612168 0.0037270763305567 0.1561157095136686 )
( 0.1198029931247456 0.0605164634197568 0.0145812089531076 0.0840659630679419 0.0126238408536977 0.1683354355749606 )
( 0.1262515276985265 0.0693545248870429 0.028584195336806 0.0944631967703666 0.0210063957535106 0.1842593272770833 )
( 0.1337243846742243 0.0771872213944104 0.0425396059533796 0.1051323024028326 0.0285023925513669 0.2024434148123704 )
( 0.1414848248718526 0.0836784720623883 0.0547706629851332 0.1151539523256094 0.0346862033672596 0.2205919007326933 )
( 0.1495329300258932 0.0893195097776747 0.0652843988768951 0.1241662204666599 0.0400285590617326 0.2374433555133284 )
( 0.1569783257444959 0.0931454998395029 0.072372000704346 0.1318538340675905 0.0430214300805073 0.2504859810938257 )
( 0.1627635788888382 0.0951533831689777 0.07563825150135 0.1378048823028975 0.0431081349481336 0.2581429719316337 )
( 0.167561182464965 0.0962142327686679 0.076229277000272 0.1419934997239924 0.0421543228602791 0.2602515241280268 )
( 0.1708844338165798 0.0959839014692372 0.0745222197115069 0.1442390855446176 0.0397384070956192 0.2565500618217552 )
( 0.1727181363337578 0.0950900924880361 0.0716564231895115 0.1451672968619035 0.036725610758308 0.2479927800969002 )
( 0.1733921039543035 0.0941290884400443 0.0677673823707412 0.1455402503434105 0.0336544744797667 0.2369272004483162 )
( 0.1733304584271815 0.0934864593393368 0.0633846318407718 0.1455532132657219 0.0305783208675345 0.2250960021479413 )
( 0.1732425047540484 0.0931175329556049 0.0589043156308441 0.1451755361326522 0.0275906619894943 0.2117471257060556 )
( 0.1732185148405007 0.0928698425536311 0.0540228553796926 0.1444196866885787 0.0243977259757009 0.1963999340579707 )
( 0.1736055106405389 0.092745631388676 0.0487522838692875 0.1430503656189193 0.0211285883466 0.1793400657677831 )
( 0.1069384100797829 0.0278520319225214 -0.0153853337938416 0.0653372452518612 -0.0185396493596705 0.1571855299270215 )
( 0.1057861571402284 0.0367585590999508 -0.0147464058662213 0.0681265577703203 -0.011666434619448 0.15082727504634 )
( 0.1091096682399937 0.0488075567938849 -0.0039627092999403 0.0742792249832453 0.0004923756611819 0.1526444977814589 )
( 0.1152584870699132 0.0601327351138534 0.0118610264276047 0.084207997922527 0.0128317513741388 0.1648101212886384 )
( 0.1221723182641801 0.0698127059381263 0.0284288578497198 0.0945696167441478 0.0230825158278095 0.179815441608566 )
( 0.1304374923256998 0.0786355104290111 0.0453034034630083 0.1051380974414512 0.0324357045980667 0.1981545941835101 )
( 0.1389752470368421 0.0860435020181469 0.0596830126831764 0.1156367223469613 0.0402067240776291 0.2179532132614797 )
( 0.1460405487311329 0.0917381135463605 0.0696968394759492 0.1255379215660242 0.0453251958312523 0.2360985094936852 )
( 0.1518333280602759 0.0962676256284008 0.0765576501921198 0.1344282719779389 0.0481678266864127 0.2509479233920235 )
( 0.1560904395927005 0.0986523881844603 0.0792540702407361 0.1412525077724666 0.0486264012613195 0.2597506164272658 )
( 0.1587027358232297 0.099287393603256 0.0778124601642063 0.1464575417780014 0.0458298423429207 0.2613303481295587 )
( 0.1609013276855588 0.099690714943932 0.074268924280555 0.1505000854225223 0.041757808847607 0.2569719424423344 )
( 0.1621769652621818 0.0996900091847929 0.0692269651556961 0.1531081584833341 0.0374535105556892 0.246977031550075 )
( 0.1622239700826406 0.0994979365392556 0.0634480570716555 0.1547725539270126 0.0330084704846163 0.2333995365327992 )
( 0.1619789269804199 0.0995076157226861 0.0577633710423778 0.1558053061328599 0.0290661486273522 0.2186355028932395 )
( 0.1619360896974942 0.1002263012277374 0.0521494077361068 0.1567244424035843 0.0253238520989968 0.2035468159759067 )
( 0.1623355676391799 0.1013250378938661 0.0465924943282385 0.1571192108792746 0.0218311114548763 0.187794391347696 )
( 0.1634984342476772 0.1026918599329049 0.0408890379660833 0.1568008346827128 0.0183014416003902 0.1709102082871527 )
( 0.1655536896608928 0.1043487541716333 0.0352668753053477 0.1557334451661941 0.0149852531821984 0.1533604204953887 )
( 0.1025143361640223 0.034192568517433 -0.0202444854134775 0.0732770701049276 -0.0154950820655195 0.1591039879484082 )
( 0.102638727390979 0.043976403605418 -0.0135216164657784 0.0770604271076032 -0.0060813251106334 0.1535724248502543 )
( 0.1091478271621289 0.0567164800639188 0.0043753180196331 0.0838031870409898 0.0085582728379279 0.1582036353132281 )
( 0.1175166402210528 0.0683522265154656 0.0252435861588122 0.0941214938845936 0.0224129539430559 0.1727140519928836 )
( 0.1257983360728861 0.0782163911651829 0.0448393854767644 0.1050436046850554 0.0337804863446344 0.1901962419260436 )
( 0.1345581131455913 0.0867768141731684 0.0615969449109405 0.1157569630771981 0.0431747552812375 0.2103747745950875 )
( 0.1414709422110159 0.0931048878235986 0.0730476186644858 0.12598029030665 0.0495323178572495 0.2295412223540517 )
( 0.1459669932216961 0.0975798458187117 0.0795441822162681 0.1356357161401826 0.0525731088487978 0.2456986829240506 )
( 0.1488091018932646 0.1006971906521405 0.0816929571331172 0.1442227028919124 0.0524053040689696 0.2568740026245126 )
( 0.1497069714178044 0.102045442933461 0.0796621727683662 0.151127036635601 0.0498748490200746 0.2604964247316438 )
( 0.1499763367416764 0.1020709210390794 0.0744281793147704 0.1561379017022495 0.0449053618387679 0.255804656885696 )
( 0.1506502134852996 0.1025146192032936 0.0677769153205965 0.1602709073979601 0.038804310923173 0.245217596543125 )
( 0.1510745252102966 0.1037498765506285 0.0607837927817158 0.1640486162469585 0.0334563322686581 0.2300547141719274 )
( 0.1510351523721923 0.1049602009644145 0.0533821981936875 0.1667757335909532 0.0282241687943915 0.2133018533484794 )
( 0.151425140430941 0.1064864682733261 0.0468870192925918 0.1684914889502488 0.02379833045077 0.1973012060132773 )
( 0.1524629284053866 0.1088448873510272 0.0409752869055827 0.1702505854899089 0.0199623882213121 0.1808413044871811 )
( 0.1541562406070822 0.1115940198053672 0.0350992966520067 0.1714079162790555 0.0164079885697094 0.1645432454910077 )
( 0.1571398039987321 0.1148341400321374 0.029434659140773 0.171631283408635 0.0130455254023473 0.1482699014295344 )
( 0.1614558586234631 0.1184635238816418 0.0240241535353826 0.1707840833236358 0.0098791148762004 0.1320017029268347 )
( 0.0996821751674012 0.0406356975976728 -0.0202919859962514 0.0821903047955876 -0.0111637961521222 0.1603507731510874 )
( 0.1029990630846978 0.0513980120585245 -0.0063931165368415 0.0862141690567831 0.0010784078847565 0.1561926294287967 )
( 0.1115317936329646 0.0643279978654183 0.0174337458285463 0.0934285628976243 0.0176923278813452 0.1633800122724483 )
( 0.120971120819076 0.0758477299310009 0.0408386459741109 0.1041321192747214 0.032227272994244 0.1796320852135814 )
( 0.129919848584748 0.0855548438149417 0.0605620782757839 0.1151790872217691 0.0438373436066605 0.1994808208166817 )
( 0.136971558121024 0.0928189297633221 0.074714209465445 0.1257499991456665 0.0518209118523024 0.2195056827008304 )
( 0.1404421166339281 0.0975801458698012 0.0822446419300234 0.1360001647479778 0.0557728553050689 0.2359979409385918 )
( 0.1415555613221829 0.1007912704006772 0.0843023251324031 0.1457997500084247 0.0562212869396033 0.2483713454812673 )
( 0.141208631759824 0.1023701923971227 0.081777508091035 0.1540035368618121 0.0534079627967643 0.2543488105700561 )
( 0.1398918420880325 0.1032888693139866 0.0758884989959932 0.161122291723731 0.048488982529797 0.2527287868984995 )
( 0.1393288661074702 0.1041896957353542 0.0678826891321682 0.1668227836285787 0.0420681073476556 0.243646918128305 )
( 0.1397879730696968 0.1056924998113557 0.059288306849001 0.1717661992894108 0.0349607705419482 0.2292230769337491 )
( 0.1404549168615163 0.1082646009930971 0.0512328014181191 0.1764962990575175 0.0289681146880397 0.2117044542403325 )
( 0.1415629708871066 0.1111751110760605 0.0435836031399987 0.1801135205552921 0.0237011220112984 0.1939519066400896 )
( 0.143399871878081 0.1146291928961719 0.0371009174932115 0.1831309002863972 0.019219582989732 0.1772339213392878 )
( 0.1460227592194555 0.1188885185426429 0.0311893719965676 0.1859816212102205 0.015302585922411 0.161024276103121 )
( 0.1497374419167886 0.1236410655966175 0.0254047763538111 0.1880103735130578 0.0117913278212085 0.1456432369504653 )
( 0.1551469080130393 0.1290358991991178 0.0202703064335086 0.1889417363497397 0.0086881863232259 0.1307827212018111 )
( 0.1625186504356149 0.1349907089171725 0.0154658912552951 0.1884670061876228 0.0057817106203049 0.116326544042419 )
( 0.0999917041658079 0.0467734843208955 -0.0153814561072123 0.0907957856718434 -0.0057568168344419 0.1612510782654155 )
( 0.105730320272757 0.057787455548726 0.004847604285158 0.0948285600937908 0.0085679560671955 0.1582487034727916 )
( 0.1152456412563976 0.0711504353397742 0.0325914338522938 0.1030368559221713 0.0269587077809098 0.1680012124440895 )
( 0.1244897581194127 0.0822059277678282 0.0556357921997539 0.1138887002344872 0.0414446611920771 0.1853643319403036 )
( 0.1318673100516314 0.0907067254924356 0.0729300612466389 0.1246707968083283 0.0520504876127861 0.205355016488591 )
( 0.1355542627738398 0.0963827943514435 0.0833449102041513 0.1352158520582657 0.0581980603416798 0.2238991682924192 )
( 0.1359814041519938 0.0997467210502334 0.0869356869818486 0.1455317978581708 0.0597683761071126 0.2377485659775038 )
( 0.1343865781352868 0.101588130310947 0.0845566745153401 0.1553934136533405 0.0574899703537847 0.2459292538260336 )
( 0.1315141572594708 0.1024478612771383 0.0781515161804355 0.1637663298624517 0.052458978005182 0.2470031255001485 )
( 0.1292958742903223 0.1037494037445635 0.069742275337395 0.1714700078232091 0.0460105634888587 0.2412798073410153 )
( 0.1287796318788981 0.1060019291341854 0.0601050780317639 0.1783430666702721 0.0384005201973799 0.228774441260377 )
( 0.1298514165198136 0.1092500066513734 0.0505723327389518 0.1846895113447772 0.0308462156560228 0.2117413234336263 )
( 0.1318250872435249 0.1133574683608974 0.0423760665600046 0.1901691968865024 0.0247562350739302 0.1939746493403787 )
( 0.1346094897040314 0.1180940260611567 0.035064259672838 0.1946743311104779 0.0195976294718656 0.1765356519102561 )
( 0.1382074191066483 0.1237423420535908 0.0286597810814658 0.1993864785911088 0.0152555220745563 0.1598692854196232 )
( 0.1430497827529251 0.1303696249317071 0.0229374654417574 0.203727704219498 0.0113862382361083 0.1446417356328269 )
( 0.1494823162060008 0.1376405270053268 0.017848757744632 0.2070871756956537 0.0081132518447567 0.1307086572065907 )
( 0.157683767580431 0.1453908086664551 0.0133795369014402 0.2089938933008764 0.005314561394682 0.1176305059761693 )
( 0.168580546421414 0.154210743298888 0.0089916226565353 0.2094353633001725 0.0026805911506462 0.1054201359075881 )
( 0.1026754449413373 0.052327631555112 -0.006452587792801 0.0992385581909205 0.0002062200881064 0.1620157880928621 )
( 0.1098543222552918 0.0635743065738193 0.0185796926362503 0.1037945973105832 0.0162311064101618 0.1603174051705623 )
( 0.1197524228185737 0.0770761567369229 0.0479911503740648 0.1124119503783081 0.035890744012986 0.1727603079737782 )
( 0.1273224266342807 0.0871287639459009 0.0688756790193011 0.1229555736039143 0.0498178142499938 0.190387561471486 )
( 0.1313229662815673 0.0938379205376134 0.0823791412933247 0.1337993734868249 0.0584030219236073 0.2084833828590125 )
( 0.131515022158708 0.0980745484495482 0.0882614340709189 0.1447685038606694 0.0623863491707976 0.2244952169906822 )
( 0.1293257376595617 0.0999911253671278 0.0873541089372288 0.1546917353168634 0.0615262306150559 0.2354624019547993 )
( 0.1255054651461743 0.1008696774788773 0.0813577842457698 0.1644644948442176 0.0570387850190786 0.2398193387760352 )
( 0.1214505167649409 0.101853163197968 0.0726162525520932 0.173469808121917 0.0506558513764187 0.2365998596438018 )
( 0.1192973358788602 0.1040306573154034 0.0625590085548341 0.1822063959524269 0.0429586328080718 0.2273804367445812 )
( 0.1192763614690284 0.107727909496361 0.0521264996001566 0.1905352732646761 0.0346439444769596 0.2131358014111533 )
( 0.1214510367852619 0.1129557400484927 0.0426167022614593 0.1983929080723892 0.0271708758804805 0.195603079035645 )
( 0.1251816728299633 0.1191837124914744 0.0344917984661967 0.2053252818757033 0.0210274845370227 0.1776963368326565 )
( 0.130258785638424 0.126186101738748 0.0275747002975479 0.2111780148660243 0.015957709762828 0.1605936445929504 )
( 0.136187445412042 0.1342865820432135 0.0214993929760351 0.2175092680946398 0.0117606327472202 0.1450879947251794 )
( 0.1431536908147457 0.1430925769213598 0.0163320972324889 0.2235065791055647 0.0082126879243688 0.1316322161512002 )
( 0.1521856561426246 0.1528112624554188 0.0120569006750636 0.2284414797455337 0.0054151599820311 0.119434267086684 )
( 0.1640093406596841 0.1636979643488465 0.0080560270782981 0.2318175292688136 0.0028529060530302 0.1081663074120515 )
( 0.178969334895258 0.1757494929352248 0.0039385079884707 0.233234362668042 0.0002348119161327 0.0981830019755281 )
( 0.1066638872803776 0.057577917290063 0.0050011254727317 0.1083923617866405 0.0066749649313866 0.1631888657087595 )
( 0.114456112062876 0.0689777540607358 0.0324938532803806 0.1131967779593609 0.024370086316029 0.1627092757328062 )
( 0.1232924052523788 0.0818318813521276 0.0610164000862957 0.1215330804592123 0.043904683687154 0.1763836855839886 )
( 0.1283986717544908 0.0903756743478431 0.0794187228486265 0.1315371059590119 0.0565750032087215 0.1940369401023626 )
( 0.1293948582955346 0.0953271167541348 0.0886254698713044 0.142197550626339 0.062975972821811 0.2103541857037656 )
( 0.1261959737221974 0.0978467339216975 0.0896906520550877 0.1532373519527358 0.0644417447447746 0.2224538302107361 )
( 0.1212909379547218 0.0986603912474359 0.0850588518408169 0.1632555863118537 0.0618047012846908 0.2296490849533865 )
( 0.1157590229299993 0.0993945920045039 0.0763546197879811 0.1735413983920999 0.0557396463803516 0.2308593218438535 )
( 0.1115718143010449 0.101056757451475 0.0661157102848119 0.1838539636837267 0.048164917548536 0.2256626720685025 )
( 0.1102188339260747 0.1043098951256377 0.0554026905735759 0.193440141786982 0.0399980997825326 0.2142495172650228 )
( 0.111550594135005 0.1098706953550042 0.0447570338921258 0.203222551189828 0.0313395914455992 0.1987035463082918 )
( 0.1154238233727167 0.1172114457611547 0.0355130024774565 0.2127347819694111 0.0238374607559923 0.1816346467128764 )
( 0.1209034042495089 0.125791975231882 0.0276299171036424 0.2215555420696052 0.0177828009510821 0.1640138835005942 )
( 0.1280733400310033 0.1354533163759016 0.0211162906627882 0.2298602401966628 0.0128914137479345 0.1475275062978741 )
( 0.1360581720449593 0.1457841317198698 0.0158269353606243 0.2382021251944099 0.009183701566907 0.1338122712916496 )
( 0.1453466634036904 0.1568746309029584 0.0113673739271175 0.2458735884899342 0.0060292681622431 0.1222197799075916 )
( 0.1573831634017612 0.1697074589511465 0.0074154238917296 0.2530060941635503 0.0032853089648111 0.1116367451364904 )
( 0.1729889307836425 0.1841664895393873 0.0036986742915643 0.2584068706461617 0.0006941915774832 0.1021591738188625 )
( 0.1920336283952001 0.1988913353759257 -9.038379569858582e-05 0.259459295769228 -0.0020549064468284 0.0937364133803278 )