/*--------------------------------*- C++ -*----------------------------------*\
| =========                 |                                                 |
| \\      /  F ield         | OpenFOAM: The Open Source CFD Toolbox           |
|  \\    /   O peration     | Version:  2112                                  |
|   \\  /    A nd           | Website:  www.openfoam.com                      |
|    \\/     M anipulation  |                                                 |
\*---------------------------------------------------------------------------*/
FoamFile
{
    version     2.0;
    format      ascii;
    arch        "LSB;label=32;scalar=64";
    class       volVectorField;
    location    "0.0045";
    object      U_LES;
}
// * * * * * * * * * * * * * * * * * * * * * * * * * * * * * * * * * * * * * // 
 
dimensions      [0 1 -1 0 0 0 0];
 
internalField   nonuniform List<vector> 
13597
(
( 17.216999821432093 1.7009700752894392 0.0127323183021199 )
( 17.217817950710852 1.7491994046615371 0.0118539902633115 )
( 17.22969592910774 1.8461134486691635 0.0116532424402004 )
( 17.250511976781006 1.9685904363301927 0.0131209607584962 )
( 17.2693371517022 2.069142765031018 0.0164422912602829 )
( 17.28143797393688 2.1481667812720127 0.0203488152401928 )
( 17.29592560294174 2.224525984202148 0.0252747753911971 )
( 17.312941084516712 2.304449083799207 0.0316861672411647 )
( 17.3316783152804 2.382986970607906 0.0382900292272585 )
( 17.351080494328613 2.460704837939913 0.0450465820129019 )
( 17.370370410919072 2.54579600559704 0.0521072349510412 )
( 17.393540798804718 2.629580389731939 0.0577623657022257 )
( 17.418919711701513 2.711373805242934 0.062792414299884 )
( 17.443729459974783 2.798525669672882 0.0676317667271188 )
( 17.468178364561044 2.888747188881479 0.0711338311755904 )
( 17.4957772664236 2.978231508826881 0.073888305933952 )
( 17.526966955659137 3.0643685615411926 0.0756396685036149 )
( 17.55859758275579 3.1505305737466576 0.0759534467244881 )
( 17.591320772880678 3.24078528883722 0.0749282831811314 )
( 17.108015792497266 1.73924124700464 0.0007141881293667 )
( 17.09397902099263 1.8014629367885533 -0.0014454061857014 )
( 17.085499820773066 1.926746738900528 -0.002504669044926 )
( 17.077835294944858 2.064720429329527 -0.0015739174661098 )
( 17.0673158723251 2.1659901183626267 0.0022228157390153 )
( 17.05387339423138 2.2565349857861343 0.0074002828066927 )
( 17.0423060895602 2.3448246068875203 0.0134052218185986 )
( 17.03003248665686 2.43509026203845 0.020227899505937 )
( 17.019886645412164 2.52573520753736 0.0269698308601687 )
( 17.008682120391626 2.614857874245513 0.0335455322910711 )
( 16.994830232048447 2.7127228010712456 0.0399237648263796 )
( 16.97958408935662 2.816685913780804 0.0441662627935031 )
( 16.962364995948203 2.9216349416544998 0.0470610277324101 )
( 16.948007047451572 3.030364796365122 0.0488916375047829 )
( 16.93733192691984 3.1387729781478897 0.0486162318758029 )
( 16.93091676674489 3.242860819204728 0.0474297245734879 )
( 16.927120866361808 3.3395089959363267 0.0454132183983875 )
( 16.923009249136523 3.4394094425909896 0.0419194095728724 )
( 16.925062728011554 3.539988799500508 0.0376059448572451 )
( 16.99706555253029 1.7703083289458033 -0.0104966720581666 )
( 16.962288026588748 1.8414169322109544 -0.013952740532104 )
( 16.924967872862883 1.9814282730599448 -0.0149954225922832 )
( 16.882442021340708 2.125015952345809 -0.0129556126656836 )
( 16.83824533641915 2.2246181167456918 -0.0082826278082501 )
( 16.796836915297018 2.320037004508427 -0.0018668333702699 )
( 16.756025117247862 2.415777768491997 0.0049184870882274 )
( 16.709278513063445 2.5106112401749745 0.0107224764128092 )
( 16.664280054169474 2.6092968731098494 0.015829511561736 )
( 16.619560285398777 2.7158726639899813 0.0203001200609126 )
( 16.572229347161507 2.8285582941436416 0.0231105288508551 )
( 16.524779849227347 2.951948628525132 0.0233675653633415 )
( 16.478834642860903 3.0816191823848817 0.0217265056091568 )
( 16.438452431837693 3.2075945832025914 0.0186780589355048 )
( 16.40536209631422 3.325101867990961 0.0141041876092509 )
( 16.378722616717976 3.431761756421082 0.0089469798080296 )
( 16.352818999749246 3.529008694434701 0.003393349933442 )
( 16.32747915980984 3.627908218295369 -0.002995541990506 )
( 16.31181752234454 3.73225617852321 -0.0093099915388995 )
( 16.875852074483777 1.788201204501588 -0.0210648865597219 )
( 16.816458841498232 1.86391781893048 -0.0251167840821437 )
( 16.74874924077665 2.0057971296456194 -0.0244811287038619 )
( 16.67064421444082 2.147763847687649 -0.0200839836339954 )
( 16.59068253053542 2.247550240781071 -0.0147997545176028 )
( 16.515906267322784 2.3425321842006155 -0.0087668139931543 )
( 16.438059983497528 2.442148393525283 -0.0033814087298463 )
( 16.356611786634797 2.543764887296053 0.0002343827340796 )
( 16.28233286687501 2.6517728303321757 0.0022521368523716 )
( 16.210881476787463 2.7709405711211814 0.0023710278609109 )
( 16.136610761549694 2.900288132234252 1.8401455951182797e-05 )
( 16.070136427455136 3.039507522142708 -0.0044467770215721 )
( 16.010432880470546 3.182546151449186 -0.0103770675465638 )
( 15.953135424777855 3.3214559979786342 -0.0175512953421374 )
( 15.901258917588518 3.443230029502552 -0.0250840434533669 )
( 15.855460759392418 3.549712935902628 -0.0319424526785614 )
( 15.812909847924368 3.6478314078912177 -0.038541123741538 )
( 15.76863033640745 3.747939571309791 -0.0452945190086491 )
( 15.728813224246815 3.8606198161704177 -0.0519214325751787 )
( 16.74808419200517 1.7911916870045002 -0.0300209220261196 )
( 16.665943668674057 1.870871170129067 -0.0322456214292138 )
( 16.564812236496582 2.01218804747363 -0.0298088278748138 )
( 16.44989663443035 2.1462197561670533 -0.0245711193244324 )
( 16.339462135983897 2.2431590578271097 -0.0195567855342444 )
( 16.234030286898413 2.338370978808969 -0.0155514261155906 )
( 16.123959182827303 2.4409523600896863 -0.0133705448817477 )
( 16.016367017122782 2.548622328345429 -0.0131098260061608 )
( 15.918765020360492 2.6630058123462046 -0.0153333786400803 )
( 15.823260287614731 2.790752592125251 -0.0204139521898617 )
( 15.726919762267665 2.936033039047266 -0.0276016392107488 )
( 15.63845262007998 3.089819299436196 -0.0357937521230756 )
( 15.556352813535774 3.242540838545992 -0.0446036173412844 )
( 15.476214028049366 3.3875365915008637 -0.0538939387030957 )
( 15.399927638422705 3.508629830845044 -0.0624368428908322 )
( 15.327955923093066 3.618844130031447 -0.0691927462803494 )
( 15.261229682412214 3.72522626707793 -0.0746232225492167 )
( 15.195751341100271 3.8327044567504296 -0.0792364414067969 )
( 15.130919829839032 3.954720028445996 -0.0832363664044242 )
( 16.617317081550805 1.7787607463700097 -0.0368703663951083 )
( 16.51002998465735 1.8602033202607564 -0.0372769051666746 )
( 16.372304470088977 2.001502594959954 -0.0330027746631945 )
( 16.227339754408195 2.1279293963422194 -0.0278849330150576 )
( 16.093872382117866 2.221582805126016 -0.0247473309715187 )
( 15.965963181261474 2.3178189763384114 -0.0237848796191543 )
( 15.837363584011516 2.4213740721586903 -0.0253859211530703 )
( 15.70900795864847 2.5325760722677835 -0.0297693216775812 )
( 15.58245161158797 2.653169127237935 -0.0369858568557601 )
( 15.45876435278089 2.7940813193368395 -0.0461845816749944 )
( 15.342082365902971 2.9494333400523205 -0.0561160673511047 )
( 15.227549650985084 3.109651896110131 -0.0661561255398053 )
( 15.120418996811011 3.269655179016867 -0.0752600679646011 )
( 15.019587241725564 3.41713582891626 -0.0829534761171785 )
( 14.920189368774633 3.541272216867718 -0.0891762523181935 )
( 14.829555950710663 3.651859790170929 -0.0932140833157851 )
( 14.74195869025423 3.7595038035554618 -0.0956074096602231 )
( 14.654863249867468 3.8695259209971056 -0.0968112712634552 )
( 14.568750778773472 3.995538865024684 -0.0965208627663626 )
( 16.476301401572382 1.7535603401746551 -0.0416037286114149 )
( 16.344589169503365 1.835993133077576 -0.0407977570560276 )
( 16.179493428188835 1.974394453862333 -0.0361739208156974 )
( 16.01233099650468 2.0926914841932955 -0.0325251632296554 )
( 15.860187039047622 2.18350595537627 -0.0324780854903273 )
( 15.710830594856931 2.278411980065336 -0.0356043510876047 )
( 15.56310204852026 2.3851895836516603 -0.0411856753382968 )
( 15.416232615621569 2.5019857428726624 -0.0499858852671699 )
( 15.266216486825565 2.6270725817037666 -0.0608582750019274 )
( 15.12477575034619 2.775428362344868 -0.07118199316664 )
( 14.986640368963638 2.938219650299709 -0.0809657826644991 )
( 14.846040759844527 3.1053717548468054 -0.0900835249731198 )
( 14.716793259451672 3.266110546364468 -0.0965059362269181 )
( 14.595096375709524 3.411264519502005 -0.1006727107777326 )
( 14.47513625722234 3.539698244071051 -0.1029564067828701 )
( 14.363944859295232 3.6481163728759416 -0.1030093711014664 )
( 14.257178813391938 3.753308895783048 -0.1015050459360262 )
( 14.148835388311578 3.867913312315069 -0.0986802938200161 )
( 14.04161337371889 3.99730535210684 -0.0943942630705145 )
( 16.338057711674768 1.7192520199936443 -0.0453949437396986 )
( 16.183824287590244 1.7977003176783797 -0.0436549302958189 )
( 15.996755983842966 1.9306341077925195 -0.0406981235286107 )
( 15.812365036665431 2.0427544788995515 -0.0403524239325927 )
( 15.641939976118664 2.132270505286051 -0.0437045892004644 )
( 15.47341391060792 2.2300309575900497 -0.0505204750451863 )
( 15.305927147064738 2.340957446429149 -0.0597403932233368 )
( 15.143111648885773 2.4581050423444477 -0.0709134482294243 )
( 14.973973494105955 2.5858509347298555 -0.0826209762607803 )
( 14.81280399002278 2.741853918119476 -0.092048898551849 )
( 14.651141265596085 2.91054715804264 -0.0993594173779606 )
( 14.490336923992311 3.0827336863308976 -0.1048418008877933 )
( 14.339778820168991 3.2442339824857926 -0.107565069310413 )
( 14.19366117391326 3.382777822978821 -0.1081134254509347 )
( 14.058951113705396 3.503996922730001 -0.1065216397490494 )
( 13.92825967356986 3.612001476209541 -0.1031443429378127 )
( 13.800725088915016 3.7205526193253697 -0.0982971165429103 )
( 13.673298884143922 3.840990642535036 -0.0918908727831406 )
( 13.546862239332134 3.975272605170238 -0.0844128926483877 )
( 16.204612425936144 1.6714018213280923 -0.0488178145472029 )
( 16.030167358130946 1.7424761467153675 -0.0481325164481228 )
( 15.82421643067224 1.87168713629315 -0.047617468642692 )
( 15.627063120666342 1.9804821322911823 -0.0503759609088736 )
( 15.438492086863784 2.071952271618212 -0.0572643351941353 )
( 15.2566462944247 2.170136651306488 -0.0669808695811137 )
( 15.075860457660196 2.2798195735289952 -0.0778023767083315 )
( 14.89706581519321 2.4033530999909547 -0.0886730855401018 )
( 14.713012453839216 2.5384860637731927 -0.0986203127844058 )
( 14.523550822415066 2.694279596315021 -0.1067759031311553 )
( 14.338838533554211 2.8662780886173165 -0.1108425313356665 )
( 14.16194686039026 3.038594106006196 -0.1115799399258764 )
( 13.986438481422695 3.1986619637135427 -0.1109689932336837 )
( 13.819575078129713 3.335449306336962 -0.108029679612479 )
( 13.670203707164742 3.451584470384448 -0.1033684549835705 )
( 13.520510065076683 3.5611469461481056 -0.0976513142955666 )
( 13.37197030224857 3.671162161004107 -0.0902820559123131 )
( 13.223801615232375 3.793313358540056 -0.0811625958260777 )
( 13.074247181094364 3.932332073260457 -0.0706427382202055 )
( 16.071175298313406 1.61778045116093 -0.0522872124558433 )
( 15.880848990545497 1.6882307270033703 -0.0537885709602109 )
( 15.661500118131478 1.8131304564475903 -0.0559220287336345 )
( 15.453348549781248 1.9145912367069104 -0.0615949744567082 )
( 15.252885844168292 2.0081816274654734 -0.0712263231334663 )
( 15.059765242687822 2.102732467548889 -0.0825570977926992 )
( 14.863262622894696 2.206989305270422 -0.0935730518000429 )
( 14.662680680781753 2.332366799112867 -0.1031788804117733 )
( 14.464815289434227 2.470141850447573 -0.1100460660947574 )
( 14.258049937253414 2.627597672041517 -0.1147149117982628 )
( 14.052893633764413 2.805319393715673 -0.116016757436355 )
( 13.856211787992835 2.980429333515661 -0.1138692469198193 )
( 13.662273202887375 3.1355845164220737 -0.109866637213528 )
( 13.48028404298304 3.271374188713868 -0.1039693722029837 )
( 13.30900188492694 3.386720350887164 -0.0970541806453071 )
( 13.13678302460722 3.4936690649868942 -0.0888427792788416 )
( 12.963182686151402 3.6026040313779104 -0.0790039945460001 )
( 12.79120987745335 3.725056440765887 -0.0684812662670174 )
( 12.619087162529926 3.8698444029709145 -0.057384127222491 )
( 15.9483489309484 1.562729261703535 -0.0568553767314911 )
( 15.748737514936083 1.634790019455741 -0.06005422612513 )
( 15.512180014627582 1.7527598396777129 -0.0650292519855388 )
( 15.296998428265669 1.8453706174387776 -0.0735056670142094 )
( 15.088042275232098 1.935307992183422 -0.0843658565010939 )
( 14.87909616330676 2.028302651276358 -0.0959196720762359 )
( 14.667691541872674 2.1280449266444603 -0.1065091068016079 )
( 14.453679586028908 2.2478381806242544 -0.1139322918935677 )
( 14.23788015744422 2.390466000849739 -0.1175931410838831 )
( 14.0170710706686 2.5518647420346543 -0.118714287333623 )
( 13.792851143839927 2.7289714482006837 -0.1169911447029566 )
( 13.570019615314816 2.908511336144917 -0.1122532370667178 )
( 13.36219235180767 3.060769359705662 -0.1055051697980484 )
( 13.164027254695052 3.1946343750741724 -0.0974208628363103 )
( 12.965869267307047 3.3096550026444134 -0.088471671809059 )
( 12.766866854232086 3.412931957844477 -0.0787656007780931 )
( 12.568892089403494 3.5219450126944736 -0.0688582396027223 )
( 12.376972677817726 3.647502804723706 -0.0590380286903329 )
( 12.181902229434094 3.799316659291924 -0.0484258359820216 )
( 15.833244214874943 1.502156313640994 -0.0629833744833971 )
( 15.62301815914649 1.5738835695601927 -0.0677595290699584 )
( 15.37321081362069 1.6878899994023526 -0.0753681510222648 )
( 15.15241407509967 1.7719669602629926 -0.0857043452387583 )
( 14.933992899224116 1.8536116085074603 -0.0966428734152669 )
( 14.711245011607852 1.9452948917150377 -0.1075336089161154 )
( 14.491225036748348 2.050884494014141 -0.1157711302543726 )
( 14.264131470528357 2.1721052222205923 -0.1202425275008706 )
( 14.030959980150078 2.3157632259376038 -0.1214563132754356 )
( 13.792261355323715 2.47517503980554 -0.1200473790148334 )
( 13.549856603136831 2.647134201115721 -0.1154233967177296 )
( 13.306462273924636 2.820638775002162 -0.108057630949176 )
( 13.075342733851198 2.9746497884664675 -0.0995562627697777 )
( 12.852601923370884 3.112897650928451 -0.090068867523183 )
( 12.6287672652325 3.2256000996587524 -0.0802024833680169 )
( 12.409898355364712 3.323674225863537 -0.0708743846339215 )
( 12.195360581121328 3.4329442674300004 -0.062011935635179 )
( 11.982224144154506 3.567544522599446 -0.0522179602192729 )
( 11.763275200890918 3.729209908639653 -0.0397174443028236 )
( 15.725462817554448 1.4320068661563994 -0.0707161359653135 )
( 15.506139490529224 1.5022482437956586 -0.0773090598081074 )
( 15.251651764142812 1.615293753084554 -0.0860933416702207 )
( 15.020252647420666 1.6979070223690786 -0.0970315524738852 )
( 14.79346010414656 1.7802401320687613 -0.1069591491455401 )
( 14.562213466281818 1.8714592641309924 -0.1155544599144549 )
( 14.330882962809447 1.9768693436832376 -0.1213177801441332 )
( 14.087238781595593 2.09472918094983 -0.1234005139355785 )
( 13.836481811320825 2.232207635235223 -0.1230008363076959 )
( 13.582624252319029 2.3933060088769094 -0.1195107040423007 )
( 13.318684958392662 2.5689093597596724 -0.1124051908192775 )
( 13.05612709697292 2.7367939405582957 -0.1034697175039074 )
( 12.798893597893354 2.888088673048012 -0.0936710426484906 )
( 12.546429238101368 3.022965097212251 -0.0836330126343021 )
( 12.30634030512937 3.1277300763125737 -0.0746312771102172 )
( 12.075679239454905 3.2260747200128805 -0.0655674593265569 )
( 11.84179318595796 3.340578471768528 -0.0555193372272958 )
( 11.602356014966912 3.481268348220834 -0.0436904592600728 )
( 11.351886008930366 3.6579030893770015 -0.0276738447291892 )
( 15.62881055641059 1.354052331609151 -0.0793431107497808 )
( 15.407222395071692 1.425448667614909 -0.0868484314821534 )
( 15.144330267958605 1.5380243627748067 -0.0956398175714493 )
( 14.90300301024836 1.6206261819408212 -0.1058543696429012 )
( 14.666927675628814 1.7031944206864114 -0.1143051274540353 )
( 14.430270485169382 1.790814863385651 -0.1204990126124608 )
( 14.186610202308175 1.8924118394490277 -0.1243904316694776 )
( 13.933341043881883 2.0086022843509705 -0.1251382366016943 )
( 13.665013750357192 2.1418981803375545 -0.1228622239013097 )
( 13.389334108937144 2.301774869038503 -0.1176741237609736 )
( 13.10304746985398 2.478316446631341 -0.1093400804811111 )
( 12.814315632400774 2.649419390132125 -0.0991782770543038 )
( 12.534471100929828 2.8007004481441253 -0.0886186984905748 )
( 12.265594554301694 2.9241468703962235 -0.0790125572559867 )
( 12.00962243881888 3.023058097826228 -0.0701419406871019 )
( 11.756245773629564 3.127729355053254 -0.0596364345350663 )
( 11.49734682266964 3.2539600327736213 -0.0474723707817273 )
( 11.226808503194452 3.3968304819678607 -0.0329013562952513 )
( 10.935623283604576 3.5798625559763364 -0.0144414522461024 )
( 15.543318279910729 1.278187807479488 -0.0877924031680542 )
( 15.314971720083578 1.3519081041781027 -0.0952090832805342 )
( 15.0346384144018 1.4635221119833437 -0.1039429629646992 )
( 14.789141283738024 1.5390921303038756 -0.1127703579646107 )
( 14.549563547133811 1.6175824929957523 -0.1198036001074742 )
( 14.307406869164128 1.7039045957445391 -0.1246008117517201 )
( 14.051792244258277 1.801634472974014 -0.1266091284697983 )
( 13.78302163904417 1.917790202762487 -0.1258168807357986 )
( 13.501919576208246 2.048878252503441 -0.1216779834780485 )
( 13.206827547056472 2.202260098518088 -0.1153411083611442 )
( 12.895097335040733 2.378048015933566 -0.1066401535329039 )
( 12.579844366173011 2.547690116606932 -0.0956322759126004 )
( 12.27655108488722 2.6989893941703964 -0.0846433097389203 )
( 11.99605648142721 2.817647626518172 -0.0749388049288586 )
( 11.725285798716223 2.9155127148851268 -0.0645785372075485 )
( 11.448024803388552 3.024067269398602 -0.0523652677213341 )
( 11.156285072132755 3.1555064132595643 -0.0382565132707077 )
( 10.846332958815806 3.3107656164381067 -0.0215150883291945 )
( 10.524208324649727 3.5136431082442643 -0.002693793314793 )
( 15.465790846153306 1.2060962722262671 -0.0954664885122281 )
( 15.23060093321508 1.2790615551053208 -0.1026457499655756 )
( 14.94016379932494 1.3873517062257947 -0.1106910383560898 )
( 14.68981637434516 1.4548522110506137 -0.1181143784844717 )
( 14.446275096624934 1.5263734984886606 -0.1238138461322821 )
( 14.195169942922274 1.617361947066498 -0.1273023644752652 )
( 13.928712268533223 1.7093848143824588 -0.1278814716402818 )
( 13.642402134440587 1.8169118190802036 -0.1250406502692449 )
( 13.344034066146076 1.95040100968622 -0.119760832771624 )
( 13.030372688886084 2.0987346281816914 -0.1129846835592345 )
( 12.689396726942949 2.276250749731036 -0.1034295501529998 )
( 12.346427507789318 2.4478495816695527 -0.0918266934763527 )
( 12.032017277391407 2.589540269173703 -0.0807423691069349 )
( 11.743012106247994 2.703817550931426 -0.0696726023664377 )
( 11.453942322318518 2.805659523581916 -0.0577549404404002 )
( 11.149417748483163 2.917904923991062 -0.044610629282426 )
( 10.820265641216162 3.0523847291015014 -0.0279073905332002 )
( 10.471154900352255 3.2248070529863404 -0.0109336432845583 )
( 10.138951703513522 3.467564158733485 0.0059929842249479 )
( 15.397197791579474 1.1356206504489423 -0.1013648240964169 )
( 15.152447536313431 1.20304105934081 -0.1087958441751525 )
( 14.856823150535424 1.311004861757564 -0.1157730010569233 )
( 14.606229908897362 1.375854229737586 -0.1215718014534012 )
( 14.35521447529118 1.443017838395529 -0.1257264713195777 )
( 14.089759402485472 1.529699930095519 -0.1278409250724353 )
( 13.810976649462368 1.613599035519942 -0.1274033480889926 )
( 13.517467676898573 1.7185520051011505 -0.1235718300769819 )
( 13.200019823543338 1.8521659357589328 -0.1179504605700637 )
( 12.861464884432149 1.992109373622026 -0.1107304557765693 )
( 12.50709252391846 2.162988554528404 -0.1003988501130533 )
( 12.14355484661781 2.345173772083575 -0.0879993040927268 )
( 11.814556471119287 2.4828668170266197 -0.0757356621194118 )
( 11.50800639090259 2.588478953577497 -0.0634375082153885 )
( 11.190143445469422 2.693976850155323 -0.051157303434111 )
( 10.847696697764826 2.805630237259712 -0.0368111690841507 )
( 10.485163977597628 2.949707493939818 -0.0201177625663255 )
( 10.120914921652869 3.1469770980738394 -0.0052339178657489 )
( 9.797731972552212 3.4385530716352943 0.0111349275795245 )
( 15.332446791061134 1.0648213755284075 -0.1065571127988948 )
( 15.082005078816351 1.127990967222024 -0.1131205862774038 )
( 14.78164094770845 1.2310451052187874 -0.119261328167298 )
( 14.531442017717218 1.2931571361941494 -0.1236782516044788 )
( 14.273379309420465 1.361906464109716 -0.1264027513577824 )
( 13.99458693914242 1.4431997378966783 -0.1277068193962026 )
( 13.707551724901638 1.5157419110161294 -0.1266217608282782 )
( 13.400848942047787 1.6206828850706885 -0.1223481263337153 )
( 13.062667007830964 1.754786515488128 -0.1162129011280454 )
( 12.704525698272551 1.8948519721318944 -0.1080982997682674 )
( 12.330370703699437 2.05378503196535 -0.0966326132188744 )
( 11.952142699590876 2.219856154360548 -0.0834988697160986 )
( 11.607340427745696 2.3591067966156887 -0.0703492390626152 )
( 11.273508324959138 2.4701190159062247 -0.0574126809204768 )
( 10.925355626425976 2.568503275864406 -0.0450932495795564 )
( 10.554334402144192 2.682307332664136 -0.0309646396669236 )
( 10.166586481149254 2.8392276144649573 -0.0158374522385251 )
( 9.805440378616233 3.0769110102343573 -0.0025216329883825 )
( 9.471576843397218 3.431324244486468 0.0139474206606262 )
( 15.275353725271746 0.9920297969864944 -0.1112591433488922 )
( 15.021521896792644 1.0511880848597823 -0.1165006185270807 )
( 14.713993955161005 1.1451751819923857 -0.1215374908863943 )
( 14.462387963238944 1.2081888052834673 -0.1245745554737771 )
( 14.19672815327656 1.2740804287951897 -0.1262261897703827 )
( 13.90492408531067 1.3520433051612473 -0.1271396988088089 )
( 13.616297048789756 1.4248809900545991 -0.1258476746994105 )
( 13.295487882976396 1.5187183615625994 -0.1212203663216744 )
( 12.934896829974605 1.648717922561889 -0.1145638406474734 )
( 12.554855951000349 1.7926839704346869 -0.1052529990708381 )
( 12.154252170418632 1.9487721689884925 -0.0924904856634751 )
( 11.769171574307997 2.09967196178215 -0.0796160265484422 )
( 11.403877221928076 2.228952538871237 -0.0665680771688839 )
( 11.038770634979446 2.341648184819645 -0.052334795147078 )
( 10.670296226748636 2.4429558902205177 -0.0388040335962469 )
( 10.279415165153589 2.568012064788844 -0.0251440468555298 )
( 9.875016503071086 2.745358481948096 -0.0118741790531534 )
( 9.507472047341 3.020004345372856 0.0006832209993254 )
( 9.080645247532363 3.391732556496565 0.0142603276459776 )
( 15.229324976725849 0.9202467738548632 -0.1142304703129316 )
( 14.96685817974834 0.9707972577709444 -0.1184630662926787 )
( 14.653177952136138 1.0589314034674846 -0.1225212665464171 )
( 14.396925689145291 1.1213988465536169 -0.1245534389628172 )
( 14.124289451248108 1.186010697055078 -0.1256088504612596 )
( 13.822590205107426 1.264821270317107 -0.1259646974776228 )
( 13.521927720729373 1.3350105565538988 -0.1239386346638212 )
( 13.19417586455191 1.418527360707599 -0.1192360613956249 )
( 12.82189855874956 1.5384829081732605 -0.1124875227140907 )
( 12.419470704746097 1.6741998742816355 -0.1026292813705142 )
( 11.997548575010391 1.8330310535684151 -0.089760872215599 )
( 11.597894930642813 1.9862296043848344 -0.0769511286769871 )
( 11.20788678593591 2.105229750695504 -0.0632719196502726 )
( 10.820471262573834 2.208592576093428 -0.0487455609960432 )
( 10.422768004264826 2.324562147217275 -0.0331798592947016 )
( 10.013007305154913 2.46067104662853 -0.0185344694883222 )
( 9.605911502532216 2.6596811873871973 -0.0080539210349282 )
( 9.176224175484158 2.96471169222505 0.00401947277162 )
( 8.582681460395627 3.289758804449566 0.0136950613668283 )
( 15.186433916059457 0.8439208639780487 -0.1162224837321363 )
( 14.92078168057715 0.8946372806700521 -0.1191462127933511 )
( 14.605560420643236 0.9771758449661332 -0.122112003255582 )
( 14.340298304698068 1.0296640517151858 -0.1238037072083 )
( 14.060187464407171 1.095073925825042 -0.1246420822710905 )
( 13.751551604482527 1.1770472846480835 -0.1245914610488103 )
( 13.436969648615213 1.239743734482267 -0.1220663362983629 )
( 13.10308634761275 1.3153595111604206 -0.1174907759600684 )
( 12.711525475040228 1.4308176327421855 -0.1099427645466234 )
( 12.290839914606698 1.5616504823709514 -0.099425038309809 )
( 11.852797710622047 1.7131549633730194 -0.087249002566936 )
( 11.42424995968354 1.8634239807467008 -0.0735706486864433 )
( 11.019763137496398 1.9860277583208523 -0.058974507864853 )
( 10.624765372516183 2.0862360346488096 -0.045385211124213 )
( 10.199903959003151 2.20625682045358 -0.0305632572087589 )
( 9.76225696664438 2.3531839640945837 -0.0180090624946593 )
( 9.343713493686504 2.5702910149201985 -0.0066912775207472 )
( 8.819024967656263 2.885147521407001 0.0048396643717398 )
( 7.973704706086091 3.1103623507076867 0.0107626731764716 )
( 15.14610309004811 0.7667771867347409 -0.117032125485247 )
( 14.880046454627577 0.8198654599568675 -0.1193121684041487 )
( 14.561791041047105 0.9006006201810783 -0.1213494731366274 )
( 14.292070701021547 0.9485779625838274 -0.1226338928687475 )
( 14.001977713498396 1.0087997915098528 -0.1232230619307107 )
( 13.680062978150858 1.07762004001261 -0.1223655543082125 )
( 13.355425920449708 1.1374432689519411 -0.1200758455149295 )
( 13.015209801901506 1.2088168787316755 -0.1161440176574142 )
( 12.597812781254063 1.3192406365540603 -0.1074820376774995 )
( 12.15858712621889 1.4527530088651743 -0.0960546144438589 )
( 11.716632052970724 1.5959188003870577 -0.0843798935148843 )
( 11.275123675106231 1.74420163440787 -0.0698174649257597 )
( 10.853645302299372 1.8721645268018383 -0.0548054071343559 )
( 10.431387784785803 1.9673695991326152 -0.0411233934501907 )
( 9.993907108670456 2.081362721800675 -0.0278088539067638 )
( 9.539326199109688 2.238371333765146 -0.0174698044481288 )
( 9.058676818297124 2.476852475632055 -0.0064552065084481 )
( 8.462955436401346 2.790227512648937 0.0014887732832717 )
( 7.211000489069997 2.823414306583288 0.0058572458677763 )
( 15.109075704750754 0.6981107368988649 -0.1166503903964213 )
( 14.839167624172395 0.7464545802521139 -0.1188171663007371 )
( 14.518949759474385 0.8237654901702839 -0.1204337400024812 )
( 14.248288204222453 0.8717004880197978 -0.1213461857637297 )
( 13.948567595292683 0.923998684368494 -0.1215267642902881 )
( 13.620106956912332 0.9806870816837884 -0.1201014734042514 )
( 13.28568337125493 1.043671204864613 -0.1181547638772935 )
( 12.927062526394604 1.1184032769778365 -0.1139858154246145 )
( 12.49055160844762 1.2161968526165643 -0.1047518390744044 )
( 12.029243587941677 1.3448938097110676 -0.0930342528475502 )
( 11.580344729512838 1.4797932101475757 -0.0804022836139814 )
( 11.139283050733702 1.6121604077027762 -0.066700399588218 )
( 10.701361080361655 1.7339938925653449 -0.0525365535012204 )
( 10.25005741784462 1.834483001946436 -0.0376620185144937 )
( 9.79021643327124 1.947935426259646 -0.022863380908861 )
( 9.316656617586965 2.1125765570431905 -0.0119164777463213 )
( 8.756757697251818 2.363431176883138 -0.0035972275881077 )
( 7.966028299526972 2.6118591476397683 0.0021828767346758 )
( 6.466874862462078 2.499746105657405 0.0053898016691882 )
( 15.079538515096669 0.6284944181716933 -0.1155862575609713 )
( 14.80497333330429 0.6752516936614349 -0.1173815927770653 )
( 14.477956001535397 0.7483587285222268 -0.1188733442804466 )
( 14.204792561583112 0.7901121003936705 -0.1198284587751703 )
( 13.898852000386428 0.8412338692468717 -0.1196049921118416 )
( 13.569530879847454 0.9001545336246021 -0.1187068307653572 )
( 13.231086896060804 0.9609414071906744 -0.1172842485600679 )
( 12.850303927559509 1.0286056801932522 -0.1120502082278849 )
( 12.401761308635889 1.1205262048711375 -0.1026823567601456 )
( 11.931725198695403 1.242625874400764 -0.0910494977905202 )
( 11.464725893633798 1.3698155459567816 -0.0774592890198598 )
( 11.00014325733113 1.4842286173823145 -0.063508330763627 )
( 10.543283785137664 1.5909345963882522 -0.0506009015266919 )
( 10.075105987551794 1.691880101753019 -0.0368945585771216 )
( 9.59741203325449 1.81280351812302 -0.0221687556860075 )
( 9.085889586198602 1.9989100056451663 -0.0118147312118769 )
( 8.463901769170956 2.2423983329876105 -0.0024811881646997 )
( 7.423748584394051 2.366613022584933 0.0044625242519074 )
( 5.82407035598918 2.187617265911261 0.0047324593252957 )
( 15.05574215627812 0.5563596420779405 -0.1138574037074234 )
( 14.780673384078526 0.604269580515422 -0.1153307519143576 )
( 14.444968152889848 0.6751260714573291 -0.1168816024576524 )
( 14.164437118052623 0.710517152088661 -0.1177716829711078 )
( 13.851853573486387 0.7563103935951236 -0.1176016370150358 )
( 13.518247491622065 0.8134333984488313 -0.1174511779858494 )
( 13.1740762612001 0.8610002434229013 -0.1159537090712714 )
( 12.780796166834508 0.924211859186794 -0.1101958068321276 )
( 12.329913622315091 1.024773955328393 -0.101106986368364 )
( 11.85261190815965 1.1404265559260491 -0.0896545091029662 )
( 11.361935188777467 1.262555312632892 -0.0764876976403294 )
( 10.873928158306946 1.3619721032621162 -0.0615910685824055 )
( 10.399243613813326 1.4553854192990048 -0.0490322976737273 )
( 9.903533812702603 1.5522314512820945 -0.0363874070741903 )
( 9.409028699609266 1.6758752007919466 -0.0238520838846766 )
( 8.840710721642248 1.873137894835191 -0.0151960250347171 )
( 8.140827221638999 2.091040342487791 -0.0051849955069765 )
( 6.967633841508519 2.122025254766281 0.0038978582916338 )
( 5.230970571906257 1.8717145405027689 0.0048187933049489 )
( 15.034839661000918 0.4940521365049838 -0.1118756535535389 )
( 14.758304044976208 0.537428341958672 -0.1133409475863533 )