/*--------------------------------*- C++ -*----------------------------------*\
| =========                 |                                                 |
| \\      /  F ield         | OpenFOAM: The Open Source CFD Toolbox           |
|  \\    /   O peration     | Version:  2112                                  |
|   \\  /    A nd           | Website:  www.openfoam.com                      |
|    \\/     M anipulation  |                                                 |
\*---------------------------------------------------------------------------*/
FoamFile
{
    version     2.0;
    format      ascii;
    arch        "LSB;label=32;scalar=64";
    class       volScalarField;
    location    "0.0036";
    object      k_LES;
}
// * * * * * * * * * * * * * * * * * * * * * * * * * * * * * * * * * * * * * // 
 
dimensions      [0 2 -2 0 0 0 0];
 
internalField   nonuniform List<scalar> 
13597
(
0.2583773086821948
0.2638869398758379
0.2748391965604188
0.2896040645481104
0.3004200142562537
0.307203561129409
0.3126352666160046
0.3160948969316208
0.31876625398051
0.3207569314394669
0.3225287782914471
0.3247094607121648
0.3265556568188523
0.3283919593940528
0.3306382259235028
0.3331808721767668
0.3359230879156891
0.3384271365756418
0.3412022895294468
0.264426707029647
0.2721379668423625
0.2873586590667962
0.3066021713010405
0.3179995648746256
0.3257121202480071
0.3315144681199022
0.3358797529138401
0.3394329172979896
0.3418307075614001
0.3435272695998064
0.3446075222724262
0.3452136455999592
0.3453077755924534
0.3452851109712642
0.3450274287765826
0.3442675519765114
0.3431583319935143
0.342132598379173
0.2737127581565092
0.284156131593493
0.30243803339729
0.3227265204839745
0.3335268305956474
0.3406604931529255
0.3449387980336697
0.3475379845057579
0.3487907332247116
0.3481662056305116
0.3456539986405412
0.343075910330567
0.3405798662280747
0.3371612657867533
0.3339486931160713
0.3309494624315807
0.3276017609685163
0.3241273260915128
0.3208085355889969
0.2838213478391814
0.2961928062399959
0.3141465787751096
0.3315108460346169
0.3395617630368266
0.343011573663419
0.3430938412166278
0.3412968386671081
0.3379421404447714
0.3336870981582557
0.3271272230373725
0.3207814143897909
0.3152317293227535
0.310159225390225
0.3064037941580972
0.3034937638929214
0.3008902623950073
0.2991783684093985
0.2982617823951104
0.292790672849241
0.3045773693995519
0.3203446155089951
0.3328087920479031
0.3356077836050654
0.3342927176644648
0.3295061395343181
0.3229877001565958
0.3157204206334901
0.3082574433725761
0.3011245499132149
0.2951593021541891
0.2906654453290114
0.2878845317923729
0.2865201686524405
0.2866042883515097
0.2876297195882333
0.2900780144582718
0.294147551531268
0.2992299563580891
0.3089204922852932
0.3207655364389965
0.3273645083218869
0.3246308585079104
0.3195632606206702
0.3120071790043139
0.302848189800261
0.2942310569669853
0.2864171018539077
0.2810039576051132
0.2777421901029076
0.2768908662702075
0.2783469253426633
0.2816605863116365
0.2866640880085882
0.2930130437297834
0.3007490582144683
0.3107926541490259
0.3030528275653661
0.3104351726583598
0.31734182918042
0.317803893679117
0.311922796577083
0.3039600261410444
0.294142155724666
0.2846934282724428
0.277407783060694
0.2723159842456871
0.2696175845201709
0.2705528480018806
0.2752496404349616
0.282370011580779
0.2916133146960302
0.3022899833417347
0.3141942533315278
0.3279951495802378
0.3439247395923069
0.3058629009302045
0.3101795603891832
0.3128365777379092
0.3088509234428213
0.2999993092514848
0.290175176102996
0.2802715441120483
0.2720850889582136
0.2669086226239717
0.2649970856433157
0.2667855254570141
0.2738617876604247
0.2848039201583937
0.2981091227901151
0.3128698719666937
0.3287712262191676
0.3461547589538881
0.3656318648431015
0.3865641300516287
0.3070887962996128
0.3083458456397615
0.3072689553412791
0.3003890055788913
0.2899983949885191
0.2800087013906343
0.2707774810249411
0.2645621955378514
0.2623018214065602
0.2646244686922858
0.2722618855267281
0.2854033325841052
0.3025843322797307
0.3217150732381053
0.3414566080920512
0.3619633881857346
0.3836615262863063
0.4071869146376241
0.4322410581538533
0.3082973589305628
0.3069438257300809
0.3013937134670384
0.2925415539007515
0.2821364434321494
0.2722822039115409
0.2639705714585951
0.2602051222788317
0.261776595159829
0.2694186373121277
0.2834475649795492
0.3022190728391558
0.3247844326524991
0.3486648439185076
0.3724293171645783
0.3968532270497525
0.4225431535644254
0.4498057645779594
0.4789187827611744
0.3095813101165419
0.3050400713103797
0.2965372593891734
0.286271727119773
0.2747141831796408
0.2653640760327038
0.2600598263289414
0.2595300296346198
0.2652338752779287
0.2776358498724954
0.2969678736843641
0.3218110290939888
0.348544740985134
0.3762338497272531
0.404252220082984
0.4328823997679263
0.4629847291885062
0.4942648509665199
0.5281353975292511
0.3096226733948073
0.302522511882594
0.2920573830818727
0.2802731209061198
0.2685692661637886
0.2605611302444711
0.2581598738040096
0.2613369683528117
0.2714828169162183
0.2884902898023727
0.3123971030937145
0.3420087832161039
0.3729684400339851
0.405305987670459
0.4384017593936885
0.4710368580099546
0.5047628889088844
0.5412689621023113
0.5813911939624932
0.3098527693357681
0.3002440879210393
0.2874866356054259
0.2749004769172123
0.2640529888194918
0.2577418028970691
0.2578055373767778
0.2649464412176404
0.2795581121273361
0.3009317788829714
0.3298557096697438
0.3635145443307441
0.3989687568144799
0.4364531085640664
0.4730570527661419
0.5093096926165851
0.5486671645057704
0.5921246441372406
0.6390076693509107
0.3106432452611835
0.2975967326246755
0.282240180935642
0.2696682896238787
0.2600384909559359
0.2559540495593179
0.2588044375071387
0.2691111390538105
0.2875469321388831
0.3135253534047711
0.3468917178273895
0.3853733055990513
0.4260837564468012
0.4670752230822118
0.5072072862188033
0.5497376486196637
0.5971058023275742
0.6475402077076704
0.7015012052451383
0.3098827139926166
0.293330359890948
0.2762870104100112
0.264031693926352
0.2565383226496278
0.2551041627866153
0.2608205474545553
0.2743187445782645
0.2961082772287995
0.3262828345668792
0.3644265226777657
0.4081167949094353
0.4543655257104977
0.4989114295882204
0.5440831678676054
0.5940395461456168
0.648952002518085
0.7080920944200547
0.7776543107620376
0.3066312242806331
0.288036797760841
0.2709782026949047
0.2595598253441444
0.2540747102819686
0.2551226550021008
0.2636607357621886
0.2805096500885563
0.3059067641690067
0.33951289802357
0.3832249659571035
0.4332747895929272
0.4829456582646197
0.531383727295769
0.5832613880327636
0.6404933661945292
0.7043118912074835
0.779180393824213
0.8780498022313689
0.3011329472655634
0.281871310304446
0.2657008851072941
0.2558068796887552
0.252238326174124
0.255818664072816
0.2671967685056925
0.2868248700248681
0.315576902704418
0.3533843113110255
0.400453205723969
0.4557364919000708
0.5102775080420273
0.5642328720260325
0.6236332906290221
0.6897213570631422
0.7671396445582899
0.8674868738411063
0.998673590794855
0.2945920010039349
0.2752498746571203
0.2601548285801442
0.2522260381005844
0.2508491944506115
0.2570095595492773
0.2707513680430293
0.2932795797726937
0.3257061000542911
0.3674865038554791
0.4182828262005993
0.4772759067666026
0.5376247197764882
0.5994122936577874
0.666270914990236
0.7424709032962893
0.841488254195121
0.974097690611488
1.113930949514476
0.2881183551847675
0.2690859203252031
0.2552480161638913
0.2493284276239403
0.2498980091062935
0.2586735442915056
0.2744908723089284
0.2995077684336303
0.335601624162832
0.3813588848452232
0.4377022709882209
0.5001332060862498
0.565860726459528
0.6361585130688457
0.7116313297892135
0.8037544809254573
0.9316980757645156
1.0951858387692197
1.2113546607911545
0.2814312205965681
0.2626872557728745
0.2509695086518904
0.2469643364159737
0.2496108653142358
0.2606222818459034
0.2789008231876632
0.3061467755692033
0.3446842165091947
0.3942614513326319
0.4561543211292365
0.524109537088299
0.5956828200993184
0.67225473190281
0.7622148843214395
0.8756561892153082
1.0351121470768
1.2187132150103344
1.2820806526431034
0.2741495128262425
0.2565384468216111
0.2468763451888188
0.2446859630670677
0.249668515228931
0.2627985425094741
0.2832251924980644
0.3123169951076756
0.3540136355207233
0.4074294599832067
0.4742052669320883
0.549825466938685
0.6272482567774643
0.7086589634157795
0.8145101191657058
0.9579949648091428
1.149183176573837
1.332211653332166
1.2864384032166023
0.2668205637864908
0.2511257801992531
0.2434338146945429
0.2432506466435477
0.2503041976940368
0.2657395718824294
0.28810216260592
0.3185435889664763
0.3644059172806436
0.4221243076802357
0.4919916952569892
0.5721350849277704
0.6556620341830472
0.7485501259862368
0.8698237230247378
1.046187476658388
1.26526780122844
1.4268960387751444
1.199874524983154
0.2599722324111974
0.2464435932044061
0.2410150899481341
0.2425474750658489
0.2509771720882375
0.2680840324327052
0.2926252498779813
0.3255989021609751
0.3747136649907189
0.4374890150302685
0.5108267002867201
0.593007527943092
0.681753184775967
0.788557126913188
0.9358470693294269
1.1437257734537762
1.3786386717262695
1.456859031598262
1.0968388521268906
0.2534530801892468
0.2418995933407262
0.238899720446494
0.2417488383266532
0.2515695131817839
0.2702470586931274
0.296460006446666
0.3319987028536638
0.3835589079410468
0.4495010113232764
0.5273696550093083
0.6161107319112359
0.7121648752205456
0.8322154819575874
1.0078291492307367
1.2468342086695676
1.4832155717323308
1.4351490009634778
1.000445295272551
0.2478634912637585
0.2381159951159011
0.2370347723109772
0.2412783927015006
0.2527272917570227
0.2729199254266889
0.3002597428894129
0.3377967860978176
0.3913599522022642
0.4598108742011288
0.5434482307787492
0.6384619419831961
0.7422136492713403
0.8831986158495841
1.0814474147398412
1.3419785408933411
1.5581503174284872
1.402472065979472
0.892504265562676
0.2435138955008009
0.2352913721387631
0.2356443037339249
0.2415870049827808
0.2545155382502322
0.2752263236496103
0.3041704585352956
0.343820708371883
0.3988613697170421
0.4714505305143615
0.5592975933781585
0.6583778969338783
0.7719782699755748
0.9325351536495462
1.1537450778061535
1.431046356000769
1.5791130273226006
1.3306974739475443
0.8089799685674978
0.2390583630675398
0.2323884017066707
0.2346704754902838
0.2423926079752657
0.2563770583271304
0.2775681781144874
0.3085695160006363
0.3507189657334233
0.4074849206597252
0.4832409255950287
0.5739299787673302
0.676763365061185
0.8017261490009397
0.9775229028218442
1.2255696740995536
1.510143122191134
1.5834614430968603
1.251202901086318
0.7401556286535099
0.2347803526100216
0.229832724137409
0.2342080678584601
0.2433822794210725
0.2582947893504808
0.2806768138174158
0.3128110046211148
0.3563102734325822
0.4154154696169627
0.4953798346153842
0.5900524431384624
0.6947624669369118
0.8289239116425677
1.0226133367558914
1.3022384691646072
1.5847763571754068
1.6066150737265823
1.1975917753439984
0.6814351003450547
0.2310313632744153
0.2278935067177646
0.2337221691220159
0.2440262545879875
0.2600308203661913
0.2834156052370259
0.3163268270541921
0.3607217794060076
0.4223485171910583
0.505952148791354
0.6029200105065056
0.7136455277128191
0.8641770876867121
1.0717320384229985
1.3704797761181575
1.640748044204693
1.6057114139252118
1.1482779424622491
0.6426798583371092
0.2277695322151799
0.2260915004132871
0.2334517292488866
0.2448600535342989
0.2618390261188781
0.2862024668406234
0.3194277782092969
0.3651929745339113
0.4298731759160397
0.5143163478566177
0.6125382149109708
0.7334013187264056
0.8959903075835458
1.1191145530393574
1.4283290981754004
1.6357491329439169
1.541976641786356
1.0985679578016287
0.6191489983380811
0.2251864724866801
0.2247016527155099
0.2338428357706769
0.2461417051255826
0.2634814484461131
0.2891216444218731
0.3229277970833114
0.3703747744359933
0.4372273106775592
0.5225941577587335
0.6236683966514205
0.7519428321428424
0.9175817577779776
1.159772620301957
1.4795686889159547
1.6218815868993712
1.476109318207662
1.054226424083249
0.6025488596253488
0.2229699769640891
0.2238513752506684
0.2345109963892318
0.2476454537969268
0.2655722658737138
0.291811774207953
0.3264469319679812
0.3757042291125714
0.4438777622857857
0.5308512147287555
0.6347035098422344
0.7671832353030057
0.9399482509706384
1.2086864004501547
1.5283824159758734
1.6385774125868764
1.4572687630539485
1.0173029931930542
0.5828169794761522
0.221051014734618
0.2231316496879273
0.2349167219041873
0.2491455105273415
0.2681001243003418
0.2939329139106818
0.3286905268364644
0.3798170603877182
0.4498051370644275
0.5388713944825674
0.6454065462984779
0.7823964781080182
0.9615867437231762
1.2499436739366931
1.5747647680235546
1.664431246316923
1.4550464518445951
0.9907394280611506
0.5609339881395997
0.2196683692788993
0.2227744724160811
0.2352633582891767
0.2502902015910614
0.2701444407286064
0.295727218312743
0.3304132106103196
0.3831222819838394
0.4547047847191747
0.5469460203701896
0.6573457559601537
0.79738354376124
0.9808191470890862
1.2788306834488734
1.6143809132571492
1.6910145478669234
1.4560456722229729
0.9745448379792264
0.5474181550708043
0.2188103933324649
0.2226225033114052
0.2358563918007272
0.2510304398385493
0.2714463923066101
0.2976334940211019
0.3325178771427916
0.3855615389835755
0.458510071221388
0.5532003992233845
0.6665140171303658
0.8095362986420573
1.0014549587013069
1.308817004696894
1.6417403911384902
1.703183421782466
1.4506404196913114
0.9601734883952642
0.5380441420125425
0.2178884902522228
0.2224266887220231
0.236533739427995
0.2518964812492167
0.2722530585611771
0.2991580315554059
0.3342672090300996
0.3875113936794213
0.4625432421414156
0.5578714253600583
0.6732749662738976
0.8205903825536035
1.0201229427983949
1.3301256285182774
1.661509974350834
1.713567495856926
1.4418104069850597
0.944104052766478
0.5274469921562523
0.2167844382386862
0.2221631243345148
0.2373110859308815
0.2531290855493678
0.2736308499084176
0.3013245380526329
0.3369700820519258
0.3902539534763397
0.4668027253037517
0.5628243302132802
0.6798216188910486
0.8313810204873261
1.0355615541449186
1.3485375707582925
1.6779374214279406
1.7174856318315863
1.439510833195507
0.9390355691578544
0.5193138628362779
0.2159183477238188
0.2219984014413739
0.2379523924063963
0.2542240538849399
0.2749844793174039
0.3031366404183364
0.3398503318158355
0.3931264383818657
0.4706167954727585
0.5669777826875033
0.6854440419172843
0.8408346273589317
1.05469086402266
1.3703495315837664
1.6848205856565894
1.7160956412478134
1.4323272217079568
0.9348837782723034
0.5145465974507988
0.2151929440038975
0.2219178808620368
0.2381851281878968
0.2551284138773748
0.2762553826117067
0.3040573687693735
0.3412680786448651
0.3950420607557564
0.4738550503307281
0.5705279572178132
0.6901560918926983
0.8482912574431666
1.0748391339630352
1.3968625138620705
1.688024897116856
1.7086819036895866
1.418078588106915
0.924700461266806
0.5120882091772222
0.2144394541590296
0.2220821138616441
0.2390902669372379
0.2564283788921308
0.2778465555155558
0.3054459199938759
0.3427436860927236
0.3965705850029268
0.4755027388236459
0.5724202022242564
0.6931699321940917
0.85353060663075
1.085612667667829
1.416116913874235
1.692900000812129
1.6964544260684102
1.4084062949625855
0.9186684727127236
0.5109772254757057
0.2137834199555323
0.2222631713734318
0.2401602612566148
0.2576029183279075
0.2791907305441271
0.3070345248696204
0.3440533162276605
0.3980967529138088
0.4776031997971024
0.5757328289171499
0.6968200369614893
0.860233185296579
1.0950009436330723
1.4258481633082196
1.6922605799822272
1.6820841597630498
1.3956379497800266
0.911119645634804
0.5102874563544822
0.2133584916523972
0.2225346128326338
0.2409160792447245
0.2584421624338826
0.2800083529091887
0.3082538193658468
0.3455519308107839
0.4000242278435892
0.4809002074681063
0.5814320438104125
0.7019369055331831
0.867032927575529
1.1036691118095998
1.429349174853338
1.6902393428145546
1.6741863117132365
1.3816090192393955
0.8996989373966856
0.5074649469562956
0.2128983538340261
0.2228265213198821
0.2418631262523808
0.2595626805163797
0.2810351780285886
0.3093746328684186
0.3471939598081519
0.401459546719107
0.4819433070732051
0.5842808352219286
0.7056557491352891
0.8698125494176416
1.1036792572521197
1.432826785033129
1.6977386534915286
1.6714589548623864
1.3689910705181747
0.8892468859716072
0.5015756124442258
0.2125146529483147
0.2227698767320555
0.2423487826690904
0.260482098901917
0.282219938533894
0.3104326877301102
0.3479298208869143
0.4019318885967376
0.4833079922021255
0.5875352747193419
0.7094045543756062
0.8738262442362259
1.1063052996735343
1.4378946171586
1.6940311454719743
1.656861296191582
1.3572890766322367
0.8826960388588901
0.4983574590079686
0.2064058231757738
0.2067536037515457
0.2083521111701497
0.2117036773310999
0.2155677396277153
0.2181862844985687
0.2198271331558253
0.2205583452572723
0.2217674296448707
0.2226995344069179
0.2231702418996793
0.2239393340552133
0.2235877803907433
0.2228281175764427
0.2226192082051151
0.2219920450972363
0.2220655372099475
0.2227814162945769
0.2231215369041902
0.2142741777075531
0.2153371920068272
0.2163238593824913
0.2204074747920857
0.2250296701545798
0.2288157880591947
0.2326406847148262
0.2356047969556759
0.2380783708340863
0.2402949936869003
0.2424427491394934
0.2450662054251846
0.2465696764154746
0.2471099099008919
0.2478258837793111
0.2481258166958809
0.2488828107827843
0.2502693527043961
0.2505675964582954
0.2207194889409172
0.2219610417013507
0.2237051795027779
0.230031437017178
0.2362461287179719
0.2424587446136453
0.2488317328547627
0.2539279290104503
0.2583869229837208
0.2631016928304582
0.2671443716274131
0.2703636072716846
0.2728302732087872
0.2744283750181493
0.2758675005968678
0.2776447517162692
0.2792070162203405
0.280313711309523
0.280754093744843
0.2260585237054741
0.2274429937296709
0.2304656519996859
0.239410832289064
0.2478928146367222
0.256718921216801
0.265672534745129
0.2730478006605819
0.2791210277522611
0.2842313059208781
0.2885466777502375
0.2915960288721343
0.2945008104086658
0.2974412004219953
0.2993012744282065
0.3012376101709051
0.3030328700579277
0.3045172948754582
0.3058921376123478
0.2289614550693902
0.2306968354076889
0.2374269430158884
0.2495494829895421
0.2604948101156012
0.2715315050537021
0.2823321061707493
0.2909201262634839
0.2979522296732673
0.3037118724730747
0.3088022277119449
0.3130560796784509
0.3167358139144987
0.3204793545695653
0.323054611135531
0.3253341243841003
0.3271653755639498
0.3284786026470672
0.3288806805366125
0.2300142365095922
0.2333845876504762
0.2444609517496187
0.2599953121714777
0.2734205356748531
0.2864820267453159
0.2982422174172314
0.308100508242623
0.3165207173025941
0.32300551153231
0.3282611694423408
0.3332188682372999
0.3373537705556075
0.3401768441173408
0.3422876250704901
0.3439773052115019
0.344508385807274
0.3445922640565614
0.3439561244093609
0.2322932177702929
0.2379602939713176
0.2516484148171938
0.2703852802101714
0.2863645786874578
0.3005869728145749
0.3130532680539051
0.3235617023487555
0.3327593786753354
0.3398588310077083
0.3449971349826952
0.3493364069065541
0.3525679081998598
0.3543598242233529
0.3553668685987571
0.3561136684196002
0.356415319369997
0.3567121166149014
0.3568795319627362
0.2353834335852904
0.2425360048617427
0.2602453521434546
0.2812075779191547
0.2978929463643804
0.3126295536395933
0.3261060693757369
0.3363722715575066
0.3451695231562566
0.3525090848162386
0.357460728958999
0.3609801527903412
0.3628721977179919
0.3640502178485387
0.3650511950824499
0.3664167187722192
0.3680853184867396
0.3705197657123177
0.3737846985191802
0.2393792705800562
0.2478719990968219
0.2684833880698206
0.2908169807837512
0.307580936191462
0.3226602247430025
0.3363494416777899
0.3474716100718178
0.3556694267131967
0.3613988960813785
0.3654539112868192
0.3685091259147405
0.3703870141466963
0.3721273268473122
0.3747588379075203
0.3784450296126967
0.3832271989211342
0.3896631787672937
0.3979237014539997
0.2421958018752658
0.2527809179683064
0.2754225664202929
0.2979957472868788
0.3155140836483834
0.3311495099310824
0.3444648189748133
0.355002388498934
0.3622556942995575
0.3674206168429795
0.3709765733289257
0.374176374479565
0.3776531469297987
0.3819719587707287
0.3877083736600556
0.3948645945904348
0.4045315903235317
0.4166261120689912
0.4310305219050353
0.2437508667555562
0.2569641867293535
0.2813558046075627
0.3039241900664713
0.3218093668722003
0.3375097289765706
0.349937650635675
0.3590197156164829
0.3657337560507324
0.3710712363314483
0.375141343585612
0.3802088494612428
0.3865709938604104
0.3946173047510293
0.4049453790329567
0.417029586883814
0.4322044488059893
0.4504990056548956
0.4716313301498108
0.2461613087047847
0.2606961050147363
0.2860176645472255
0.30789394217884
0.3255177703827313
0.3411183680422384
0.3524212345984911
0.361278715912969
0.3682478563486493
0.3739776428407372
0.3803548844769374
0.3883264803299135
0.3980906295403493
0.4105657176477273
0.4262096347759538
0.4441769318840636
0.4653536027098802
0.4905340163854207
0.5194911034035057
0.2475014930977677
0.2626325119259958
0.2890941421036642
0.3105251596148451
0.3279927587279099
0.343009840350047
0.3536897596472876
0.3622229360594035
0.3697711946601929
0.3773836392647032
0.3868506760355601
0.3987317934218251
0.4129108467249176
0.4299823422321825
0.4511647521817369
0.4757967256857343
0.5042090252358664
0.5379255527852989
0.5766764386086748
0.2476808012160187
0.2632697054685209
0.2904342735071834
0.3125501574974395
0.3301144791591804
0.3438043780888659
0.3540102496886279
0.3627618811319135
0.3714338006150661
0.3814839983341517
0.3943621400798116
0.4104239910715651
0.4300392538699038
0.4523924112275021
0.4800323799406273
0.5131211183590721
0.5497533513736415
0.5921148038519518
0.6416972603435126
0.2476079508975435
0.2634198934320168
0.2909234226902764
0.3128994020415765
0.3300817571443477
0.343144950169335
0.3537957390787681
0.363428662612091
0.373925159814383
0.3869651811541433
0.4031717341367135
0.423571142480083
0.4492385875507296
0.4786820255275412
0.5130811216878223
0.5545128164651995
0.6008049285743698
0.653781022392516
0.7225282800986766
0.2470658497657444
0.2636213296051801
0.291488061433694
0.3120548644155957
0.3287334296708699
0.3420229884214396
0.3537896524182072
0.3646529396433762
0.3765381591829386
0.3927691091457739
0.4128219315666275
0.4390744089938875
0.4710607952262854
0.5082783628340936
0.550235201366933
0.5983120373602461
0.6557658904746678
0.7276909683174417
0.8259870873462757
0.2460403719069903
0.263080481369321
0.291510681696913
0.3109744052463148
0.327239217961522
0.3407828679923922
0.3532699481920541
0.3656909803013035
0.379927010493898
0.3992436825024602
0.4239421676743742
0.4560448546764267
0.4942944431647256
0.5391412855652763
0.5898862049138361
0.647269055086163
0.7188059477348343
0.8179522136185795
0.9425965509853056
0.2439304072023505
0.2614221771881526
0.2905642510069584
0.309349380713158
0.3250116069860354
0.3393513758045325
0.3529533581157371
0.3667327489737022
0.3840843661104949
0.4068988578013254
0.436778339158856
0.475331559078383
0.5205692946847561
0.5729632355005158
0.6316968264388773
0.7019695838051903
0.795522075803033
0.9293678944804212
1.058927113178054
0.2413467013047652
0.2595870811045329
0.288553238761279
0.3067879320345645
0.3225811562420968
0.337466002096229
0.3525609854845329
0.3683725008282724
0.3882403026407497
0.4146683040042613
0.4503274474874316
0.49525343450684
0.5481908081278963
0.6082880198135104
0.6760757442927985
0.7645683362957254
0.8875639683696167
1.0476865117905756
1.142139526815969
0.2392147135576462
0.2575699153016378
0.2861314881577879
0.3045044135987146
0.3209091278953649
0.3359582132579271
0.3516785462197089
0.3698328046868556
0.3927451473947861
0.423008686514704
0.4649400858066863
0.5168463320351233
0.577121927154294
0.6456932305651171
0.7251757395761237
0.8341625196909727
0.9921577310644544
1.1564311991028315
1.1867416242646156
0.2369033907578528
0.2549123512616697
0.2836640052727338
0.3027234217019329
0.3192210290300043
0.3343978093562847
0.3514635732415889
0.3718571918299103
0.3974221808933517
0.4316935839581226
0.4800466934271029
0.5407031237173978
0.6077188343790134
0.6853362146602618
0.7807221786238413
0.914372711048562
1.1009480593407202
1.254549881313081
1.1855036513739925
0.2342442152376786
0.2523097106994327
0.2814842078379266
0.3004216387102222
0.3169771473860247
0.332905703464691
0.3512565887101663
0.3737979460371033
0.4023697606977527
0.4410308837650103
0.4948307229379775
0.5626989702723924
0.6378725277010013
0.724742133818048
0.836400184225184
1.004619703591523
1.21798993330399
1.3500470798572457
1.105592855263284
0.2321961101541663
0.2498599956686109
0.2786165221362188
0.2973147550656349
0.3143749820984262
0.3313370856605309
0.3508347798461634
0.3753223940730015
0.4079141700969936
0.4519209189116931
0.5110391182134171
0.5858255939170443
0.6702295673530608
0.7679206391066209
0.9034755772997298
1.1060102496888211
1.3300944334096132
1.369956929381132
1.0025657253364428
0.2302138884398452
0.2474131965789586
0.2757155178671271
0.2944711524701382
0.3123205785348075
0.3300683858388907
0.3509018714059862
0.377229563728807
0.4133235271197008
0.4632168903233442
0.527903547232068
0.6088808146511017
0.7020822357068524
0.8140916703029729
0.9776403290294772
1.2092274321584715
1.4184558786347117
1.3327689244509904
0.9184391003891982
0.2275708799896393
0.2449740581419855
0.2737176699145617
0.2923996697724719
0.3102922481650657
0.3287060007379999
0.3507206961063004
0.3792934524750314
0.4188541622914221
0.4742169181362149
0.5453197155398725
0.6320786028522106
0.7337760666359429
0.8655764837626758
1.0534523567327194
1.2982849698293186
1.4761513538808133
1.3084473842159452
0.8342494654320342
0.2250729316750429
0.2427480237101433
0.2719778694582638
0.2905793634824171
0.3078482595146399
0.3276178797421748
0.3514681198790894
0.3816507466137283
0.4248889569522533
0.4848292513406768
0.5613017827476057
0.6552865309173086
0.7631692253774643
0.912974324222034
1.12779101857344
1.3768757661930815
1.480009540450497
1.2371746916216226
0.7566721241099188
0.2231609288271392
0.2405080976071982
0.2693085238544981
0.2880310801529147
0.3058598592008754
0.3267520184732762
0.3521647436060922
0.383787041482064
0.4298787690765704
0.4937838701425824
0.5768247941417591
0.6786364028031823
0.7940929037980051
0.9564898887286092
1.1957033457016406
1.451608605793401
1.488707876164483
1.1697102431124042
0.6916330372804157
0.2215280022521338
0.2382186817577986
0.2661712693349206
0.2852832552337936
0.3041683132024672
0.3252401318293713
0.3512431426151358
0.3849647739980589
0.4337921658915167
0.5021748493778133
0.5927604292574116
0.699575676362675
0.8276710410850604
1.0080633942334372
1.2697498899729804
1.5311078452037257
1.522537351824075
1.136576180867656
0.6490224552262482
0.2198809887428843
0.2362464817631919
0.2640591427899643
0.2831260094325263
0.3021224623285944
0.323557935159886
0.3503974192597074
0.3869319150371549
0.4387377675816808
0.5117619664104324
0.6063472046598041
0.7177022775102397
0.8603189055167592
1.0575397187990483
1.3314418075536552
1.5736661944587675
1.5206969963886237
1.099996481290742
0.6206485298818382
0.2182400616967248
0.2345715548305803
0.2624363287874912
0.2813673913871413
0.3000621861566905
0.322163851860951
0.3506239446870479
0.3896536931617806
0.4431633333650311
0.5198545531750299
0.6192123647749742
0.7391302994109417
0.8944941803074908
1.0986151993874225
1.3815359661377369
1.5747720524811897
1.464050932596353
1.0454065083873154
0.5921718852455949
0.2166504035826249
0.2331454548337224
0.2601964945839989
0.2788728666546363
0.2979351178069003
0.3208701571861105
0.3509127738115449
0.3922794983690913
0.4475172020705241
0.5269621396137554
0.6305857327048799
0.7570259535744861
0.9176833396570944
1.1346013763683007
1.43707134912015
1.5794970843062563
1.4081082094053698
0.9937007180508975
0.5676898608915742
0.2150360090223888
0.2312634474849925
0.2576226994760089
0.2763801441326769
0.2962941390097293
0.3199918627309942
0.3510709491825962
0.3947623025274333
0.4534331454743349
0.5363640248134803
0.642130579424425
0.7724481036378898
0.9379942570656664
1.174393109320793
1.4894909873423698
1.6024051351411484
1.3947221094552775
0.9607434087763658
0.5472564595324916
0.213863270119183
0.2298848269132227
0.2561686477031999
0.2745377682949837
0.2950182900210114
0.3196128344426667
0.3512123446556563
0.3958453394910284
0.4575546872880089
0.5449183289999918
0.6546444826117073
0.7893516209438214
0.9627722023055304
1.2176932888745036
1.534527119791337
1.6330670725577263
1.398528443869346
0.9391302101332936
0.5383029808368163
0.2132351908376216
0.229000431598651
0.2548485072904112
0.2728299441311226
0.2939353321425084
0.3191788096512034
0.3513083118513037
0.3966927265314272
0.4606218195307786
0.5497447305802443
0.6614108753280311
0.802138078880632
0.9819315519877012
1.2534478949121994
1.5679419519778413
1.6505270144903923
1.4035495873631023
0.9239278424691852
0.528150976799646
0.2130688083258793
0.22812619909186
0.2531100485205852
0.2713792994564108
0.2927656254037283
0.3186572308419466
0.3511257873510298
0.3974369705370921
0.4653067072309219
0.5554281831580926
0.6678401784755351
0.814256798097501
0.9961504717854716
1.2778535884664677
1.5941941901342356
1.668725166600162
1.4085281690478884
0.9099874078973174
0.5150880483824221
0.2130557788931043
0.2274038948655351
0.2517506307894241
0.2700920625387383
0.2909414049844001
0.317427640310439
0.3508153338647789
0.3989134734451185
0.4698309569578237
0.5612559664581745
0.677250235366062
0.8256419974161442
1.007459762124439
1.30134091664804
1.627560625286487
1.68920696286846
1.4046117842940762
0.9012734269432082
0.5104125880224463
0.2127757742046702
0.22655089079914
0.2505628875514675
0.2689667623713236
0.2890740989151024
0.315958565826716
0.3505591586030305
0.4006235794218361
0.473343262067544
0.5654416944082011
0.6826279007270203
0.8340117041536723
1.0226332275295125
1.3252707278954776
1.6531107309661248
1.7011218985818144
1.4019705496439878
0.8997993114758305
0.5106236125127304
0.2125980615463695
0.225869541573444
0.2490277633177724