/*--------------------------------*- C++ -*----------------------------------*\
| =========                 |                                                 |
| \\      /  F ield         | OpenFOAM: The Open Source CFD Toolbox           |
|  \\    /   O peration     | Version:  2112                                  |
|   \\  /    A nd           | Website:  www.openfoam.com                      |
|    \\/     M anipulation  |                                                 |
\*---------------------------------------------------------------------------*/
FoamFile
{
    version     2.0;
    format      ascii;
    arch        "LSB;label=32;scalar=64";
    class       volSymmTensorField;
    location    "0.0036";
    object      tauij_LES;
}
// * * * * * * * * * * * * * * * * * * * * * * * * * * * * * * * * * * * * * // 
 
dimensions      [0 2 -2 0 0 0 0];
 
internalField   nonuniform List<symmTensor> 
13597
(
( 0.1968772271646673 0.05933735498079 -0.0058487768551755 0.094350581267162 -0.0199931219327178 0.2255268089325602 )
( 0.1996082329996927 0.0635307300802721 -0.0040456912309696 0.0963705765942073 -0.0158815068237447 0.2317950701577754 )
( 0.205219620012803 0.0709062211299927 -0.0015930063754858 0.1004770106566609 -0.008452027414095 0.2439817624513733 )
( 0.2135992321023939 0.0801776908156822 0.0013025523100573 0.1072440508180084 0.0001680808009726 0.2583648461758185 )
( 0.2217390241362349 0.087179856509137 0.0033437871814973 0.1139366824567329 0.006610582116323 0.2651643219195393 )
( 0.2293495091980479 0.0916907132681809 0.0043048174790756 0.1197260542929497 0.0111294759362941 0.2653315587678204 )
( 0.2370615857531158 0.09597294658631 0.0044232313167123 0.1252585104503343 0.0145226542351684 0.2629504370285589 )
( 0.2450400568786329 0.1000351391354088 0.0042070647006548 0.1303667155675859 0.0170490033915244 0.2567830214170228 )
( 0.2535157855217765 0.1035728935467928 0.0041072752599152 0.1347817982895121 0.0192223787317815 0.2492349241497313 )
( 0.2620284405895549 0.106910086535416 0.0033978696950788 0.1389671211636386 0.0209773530606747 0.24051830112574 )
( 0.2711435068455007 0.1098947266040737 0.0022071168563695 0.1438877975848089 0.0227780186905427 0.2300262521525845 )
( 0.2809291457024387 0.1127868082507084 0.0015635318181931 0.1488692915428012 0.0244779721531064 0.2196204841790897 )
( 0.2900844477887905 0.1157099334172531 0.0012425221225464 0.153258718441846 0.0256849474722322 0.209768147407068 )
( 0.2987699884548498 0.1183945101989972 0.0002931757922073 0.1583523825536363 0.0272665133331587 0.1996615477796192 )
( 0.3077138591237014 0.1211678757947863 -0.0016697542496078 0.1644721453036326 0.0286344410170651 0.1890904474196717 )
( 0.3158518062717037 0.1240048270997571 -0.00318357905537 0.1702604094020992 0.0298653113015121 0.1802495286797305 )
( 0.323097321254157 0.1260951697166726 -0.0032813468589188 0.175740227725763 0.031382474740356 0.1730086268514579 )
( 0.3296336864644368 0.1275671406089149 -0.0035486372759559 0.1810152811102051 0.0330054874355559 0.1662053055766417 )
( 0.3360632797017918 0.1297939389069088 -0.0042377107320479 0.1863218761641428 0.0343417908099638 0.1600194231929593 )
( 0.2042230046312827 0.0726610802563798 -0.000670843449312 0.1085734807653138 -0.0113452746601415 0.2160569286626973 )
( 0.2083835381376924 0.080346485613405 0.0001885521448237 0.1136155302057262 -0.0069604671213752 0.2222768653413064 )
( 0.2174222091050335 0.0921336308198726 0.0007485505974731 0.1213532194677064 -0.0003836571141966 0.2359418895608523 )
( 0.2308177846180086 0.1045447423861506 0.0015308340503827 0.131904367976826 0.0057106463784199 0.2504821900072464 )
( 0.2420602628532224 0.1130800172962667 0.0005321457188348 0.1400918070982645 0.0085398964046853 0.253847059797764 )
( 0.2521836805490039 0.1192096243558399 -0.0014120904867826 0.146783443171319 0.0099877881103299 0.2524571167756913 )
( 0.2621604577289745 0.1245197221963943 -0.0031915874507671 0.1530312435990995 0.0103681341201285 0.2478372349117304 )
( 0.2725095028775849 0.1293582932784977 -0.0054726459392143 0.1589108050065591 0.0097839247742328 0.2403391979435362 )
( 0.2827555763505348 0.1330434262461987 -0.007187199291321 0.163642240281731 0.0095679783311046 0.2324680179637133 )
( 0.2920480812695531 0.1359099615942374 -0.0082249004617169 0.168091573271918 0.0090887306586791 0.2235217605813289 )
( 0.3013495502594058 0.1380390893739656 -0.009509282568993 0.1728156204624278 0.0085110235379142 0.2128893684777793 )
( 0.3104258058887573 0.1394492162425336 -0.0102337103446886 0.177315839691357 0.008253330443431 0.201473398964738 )
( 0.3176219731812694 0.1398849543583507 -0.0104877956340251 0.1815387912270454 0.0078598984443679 0.1912665267916033 )
( 0.3231024866446926 0.1397308975694889 -0.0097677685726852 0.1857463394752512 0.0081193853852266 0.1817667250649629 )
( 0.3274027033785413 0.1390839460053967 -0.0082929493103471 0.1898206556120317 0.0087833073409796 0.1733468629519553 )
( 0.3300801055481246 0.1378261831328046 -0.0074239386583714 0.193225515242238 0.0089149372886314 0.1667492367628025 )
( 0.3310205639416655 0.1359985178022265 -0.0060754107232551 0.1959023594543494 0.009013323519707 0.1616121805570077 )
( 0.3305126491533141 0.1333767888760773 -0.0045103911348859 0.198516280849991 0.0091305794559881 0.1572877339837231 )
( 0.3293112528094477 0.1308943475231857 -0.0032317855644572 0.2008674744341361 0.0089263106862209 0.1540864695147625 )
( 0.2082822545952874 0.088752933437765 0.000124254931686 0.1236743567857229 -0.0033384427278998 0.215468904932008 )
( 0.2138924831385084 0.0987942889002801 -0.0013161937568198 0.1311828239806874 0.0007905950554584 0.22323695606779 )
( 0.2260747337340198 0.1122759755446218 -0.0041693245487233 0.1415261748807337 0.0051750431052144 0.2372751581798264 )
( 0.241932978115448 0.1250413336884424 -0.0074677850306251 0.153330963364201 0.0081223800440409 0.2501890994883 )
( 0.2539916773255007 0.1332340600555492 -0.0116596885561812 0.1616264071818192 0.0081050698063087 0.2514355766839748 )
( 0.2648721897503989 0.1387690800029123 -0.0154436338110261 0.1679547910274491 0.0070934199923608 0.2484940055280031 )
( 0.2745734414854405 0.1424262402463625 -0.0180013379211476 0.1730650708318192 0.0053378294740149 0.2422390837500797 )
( 0.2832976483936543 0.1446821316680301 -0.0199250678140686 0.1770144063760078 0.0032805923297977 0.2347639142418537 )
( 0.2913768952076335 0.1449246341222015 -0.0204173454411201 0.1797399902331833 0.002021607253829 0.2264645810086065 )
( 0.2980357420274613 0.1439733516262482 -0.0188260895581704 0.1819368679717051 0.000790930523757 0.2163598012618567 )
( 0.3018021117509277 0.1418243687214128 -0.0164478181449988 0.1832126116315323 5.923104290695464e-05 0.2062932738986222 )
( 0.3046630451007708 0.1382276381850878 -0.0133752893592776 0.1840942452382893 0.0001446572430196 0.1973945303220736 )
( 0.3058137003968928 0.1331908835051823 -0.0099989421165226 0.1849059344665089 0.0003200934286261 0.1904400975927477 )
( 0.3041455838096946 0.1275560784316134 -0.0061657254388217 0.1852871267143167 0.0004528973800319 0.1848898210494953 )
( 0.3014653504700153 0.1222291808740325 -0.0016698182053396 0.185328913795398 0.000667082747536 0.1811031219667291 )
( 0.2981591827212657 0.1170796711482445 0.001134469710955 0.1851048009727125 0.0004652983602743 0.178634941169183 )
( 0.2936736115640177 0.1123223786158201 0.0033190371329277 0.1846513729066267 -0.0001094237675766 0.1768785374663883 )
( 0.2882611412826763 0.1076331833301072 0.0056650220497522 0.184222751698334 -0.0006716263819337 0.1757707592020153 )
( 0.2827113925275821 0.1031118568265579 0.0073947343482815 0.1839800211413778 -0.0016321304892758 0.174925657509034 )
( 0.2094391999183878 0.1033073779397549 -0.0018864111117534 0.1387748469677634 0.0027344253196994 0.2194286487922115 )
( 0.2160232232332804 0.1142675838907995 -0.0059417712121267 0.1480870341451655 0.0058400948403868 0.228275355101546 )
( 0.2296342696161512 0.1268901144140354 -0.0126438309371158 0.1590494609158788 0.007171960882275 0.239609427018189 )
( 0.2445759802102541 0.1371232469608853 -0.0188711800222636 0.1698657845579625 0.0068567935446149 0.248579927301017 )
( 0.2543412793176344 0.1425200474457593 -0.0229071781290593 0.1766037241768057 0.0051048710012243 0.248178522579213 )
( 0.2621346428224586 0.1447688143662026 -0.0246154383144927 0.18039746961486 0.0029219737154161 0.2434910348895193 )
( 0.2682622492245773 0.1445888321758295 -0.0241530730938221 0.1823325528873116 0.0010832879655504 0.2355928803213667 )
( 0.2726364911952968 0.1426934816869431 -0.0208580005488885 0.1826611447868231 -0.0003802237252748 0.227296041352096 )
( 0.2754066001533729 0.1389801751534612 -0.0157313402724932 0.1818051926690738 -0.0010119954893741 0.218672488067096 )
( 0.277457570911799 0.1339625723246442 -0.0091362673916246 0.1803799720743168 -0.000843808890613 0.2095366533303956 )
( 0.2764746714844395 0.1275458214451234 -0.0019845549255899 0.1771050063550924 -0.0002589071915705 0.2006747682352129 )
( 0.2738095589072063 0.1203166029973574 0.0052422961727389 0.1739659319938624 0.000439328701713 0.1937873378785127 )
( 0.2709506081326172 0.1136200677483952 0.0123758109300431 0.1715083121152725 0.0006282750957937 0.188004538397617 )
( 0.267618172690595 0.1072356558502041 0.0182579351788831 0.1688018479462492 0.0006348688775035 0.1838984301436058 )
( 0.2644301710461386 0.10213526327421 0.0230957448430296 0.1668795062768564 0.000388781548005 0.1814979109931993 )
( 0.2616563859416021 0.0988475290788478 0.0269711157541878 0.1658933695549543 -0.0004439651248291 0.1794377722892864 )
( 0.2587781187497673 0.0965527260146952 0.0298790355293596 0.1651788017778983 -0.001343243195454 0.1778236042623489 )
( 0.2564356822444891 0.0950628317141828 0.0323323094463404 0.1650633923642367 -0.0025969455212826 0.1768576622100711 )
( 0.2544063570283779 0.0944620192234086 0.0344882687427324 0.1656905381257175 -0.0041834913070495 0.1764266696361252 )
( 0.2083797130996211 0.1145328005064582 -0.006252745257039 0.1522183833477748 0.006218008097091 0.2249832492510861 )
( 0.2149157964108108 0.1241219775346808 -0.0116265768935362 0.1617193253344047 0.0070814791920795 0.2325196170538882 )
( 0.2274863207776946 0.1340861963452294 -0.0190708284574106 0.1720144176471347 0.0063343753113088 0.2411884925931605 )
( 0.239317398640813 0.14042652761128 -0.0234764401361814 0.1807446537863991 0.0043098333980474 0.2455555316685941 )
( 0.2449023495173758 0.1416979877827725 -0.0230030244132015 0.1844414256230009 0.0022702118534362 0.2418717920697538 )
( 0.2490846791789859 0.1402400454368399 -0.0192938710885185 0.1850420937477704 0.0007100522098244 0.234458662402173 )
( 0.2519557362913708 0.1366480500998214 -0.0122194351671566 0.1834687021641351 0.0005599527985101 0.22358784061313 )
( 0.2526757513263385 0.1314487899982217 -0.0029922756064128 0.1799158974303871 0.0012899150569502 0.2133837515564661 )
( 0.2528571142424831 0.1257145944587388 0.0064002522531412 0.1751917128853195 0.0018851170789655 0.2033920141391775 )
( 0.2532262901362603 0.1195374413836891 0.0156610994115504 0.1702210658543868 0.0028030412233862 0.1930675307545048 )
( 0.2532557755735367 0.1133712521472139 0.0249789866321196 0.1652188935704827 0.0034577739221758 0.1837744306824107 )
( 0.2525559700713495 0.1080038084704947 0.033841277164239 0.1609697406834331 0.0037475062022381 0.1767928935535956 )
( 0.2518978010369877 0.1041559458463721 0.0408504245104474 0.1577373710356177 0.0034667962193904 0.1716957185854172 )
( 0.2516892730670386 0.1019951178811953 0.0461108692260144 0.1557122616961686 0.0027593821339428 0.1683675288215388 )
( 0.2518961483932413 0.101541994657205 0.0500823558310709 0.1549666312987786 0.00178727100209 0.166177557612861 )
( 0.2529158760412666 0.1029766064105468 0.0533673387941074 0.1552420523056166 0.000424442369429 0.1650506483561359 )
( 0.2542344763613864 0.1056677004852575 0.055418506331317 0.1562935709930729 -0.0010108990237888 0.164731391822007 )
( 0.2566364299054888 0.1095076965610939 0.0565392102703797 0.1583876369087214 -0.0028587225485834 0.1651319621023333 )
( 0.2600256048836907 0.1149523043666104 0.0570628004695077 0.1617049588653024 -0.005186913240994 0.1665645393135428 )
( 0.2054228323985646 0.1211007102195102 -0.0093824724910676 0.1630847593317841 0.0067442440979269 0.2299523209858291 )
( 0.2101468826176958 0.1277898502386097 -0.0139739937514352 0.1717305567675648 0.0063272259503091 0.2359635451853257 )
( 0.2198699384230955 0.1340893303534335 -0.0181701863956134 0.1805073406485187 0.005125500546725 0.2411537938063787 )
( 0.2282938878423436 0.1366444208555622 -0.0170980151963279 0.1863427673588387 0.0033715739633747 0.2400923614425913 )
( 0.2311987470941794 0.1345629071258078 -0.0110525196309385 0.1868374433133213 0.0026767097894512 0.23122552660832 )
( 0.2344614317568957 0.1306216366287774 -0.0023671596939285 0.184624676060722 0.0027755987781468 0.2200404134237226 )
( 0.2372254675285032 0.1258151766716095 0.0084781644969647 0.1804373152359377 0.0037139627856491 0.2063515752441866 )
( 0.238386673538127 0.1201715263555755 0.0196909194555801 0.1745493436316731 0.0054482469313455 0.1927603624307218 )
( 0.2401832577593764 0.1151909373946078 0.0301081333919267 0.1684084112315814 0.0067024345684798 0.1798704449430125 )
( 0.242400210578137 0.111321205655677 0.0400312156490412 0.1625522216153633 0.0074451618574339 0.1678817715143147 )
( 0.2451042849708722 0.1089032778545334 0.0490194853300699 0.1580847782129466 0.0075543434251961 0.1588188520264075 )
( 0.2480875934161074 0.1082902216077867 0.0558114804941266 0.1548668014065522 0.0067238748947081 0.1525299853831556 )
( 0.2511815007701483 0.109544641376169 0.0604213126765429 0.1529300537581491 0.0053570693422536 0.1496701780121175 )
( 0.2546302654411655 0.1131185502039701 0.0631734533710205 0.1534210098378921 0.003757993712519 0.148642575406269 )
( 0.2589777514483284 0.1186184218197821 0.0643733806577584 0.1556337404079649 0.0015020536870808 0.1487096807669796 )
( 0.2642576796468279 0.1252572628892093 0.0646216302547717 0.1585119386549983 -0.0008630146187243 0.1505585577153501 )
( 0.2701728889392239 0.1329243242908863 0.0637409119135112 0.1622980708001221 -0.0033197055826471 0.1535551277202206 )
( 0.2771577063001254 0.1418335487892388 0.0617269959678103 0.1671385340661909 -0.0061255908409998 0.1572018760626202 )
( 0.2856385681231843 0.1525243427432384 0.0588126130064597 0.1732814786879049 -0.0093842038285606 0.1626652614869626 )
( 0.1990744380455653 0.1227115568916153 -0.0091672034857625 0.1723757824635244 0.0061508789277975 0.2346554346216426 )
( 0.2023756007485545 0.1266665506722529 -0.0108151228022585 0.1800453883850472 0.0062487383944182 0.2384493561831178 )
( 0.2104960383379605 0.1298341802392736 -0.0100087801553469 0.1865944520841663 0.0056896476636635 0.2375931679387132 )
( 0.2171110535185778 0.1292874445280485 -0.0034471279215502 0.1891068068997311 0.0049844110788347 0.2293899269399249 )
( 0.2211433872945028 0.1258374436956522 0.0060766940663327 0.1872832986211428 0.0052725431343036 0.2154189072385205 )
( 0.2250021326344346 0.121540432321568 0.0169133599371907 0.1831218045921563 0.0061942646245538 0.1997961150554978 )
( 0.2279626537608953 0.1171797592699411 0.0279487715092752 0.1773374658565916 0.0073780199288671 0.1829841918318449 )
( 0.2315876252725907 0.1135368246440648 0.0385696855005088 0.1714247534447135 0.0091033622035514 0.1663744778275813 )
( 0.2365533307465461 0.1117112836670109 0.0481700156376753 0.1664862562025511 0.0102927016018306 0.1517759791722908 )
( 0.2414681411919609 0.1117456012149332 0.0558863889027894 0.1621836132966312 0.0104177220712134 0.1409802140027819 )
( 0.2459830620837752 0.1137829076725906 0.061558389614971 0.1589034719560722 0.0094517758160493 0.1343486350004942 )
( 0.2516576154481527 0.1183854252995893 0.064820952455789 0.157835296383043 0.0071842257378832 0.1316127841725655 )
( 0.2586988008828825 0.1253654956212552 0.0660997274935548 0.1589463129911451 0.0044442615233781 0.1328541669958953 )
( 0.2665681120441467 0.1341898177629878 0.0654493014041756 0.1621424732573063 0.0014580867886557 0.1360294378601051 )
( 0.2751926076719099 0.1445746064217042 0.0632320440506257 0.1673130981606592 -0.0022431375627988 0.1407209235594912 )
( 0.2845659342847997 0.155930058646926 0.0602165121784743 0.1734442527827737 -0.0056687308201976 0.1465697796158957 )
( 0.2949329745663074 0.1679801366807794 0.056570772989916 0.1800806635750439 -0.0091083891976538 0.153374868521704 )
( 0.306755109738798 0.1815636313450815 0.0517073401757909 0.187733633214233 -0.0129089924357806 0.1615015562074447 )
( 0.3203145630177471 0.1967348794535222 0.0456618378975634 0.1964991959968072 -0.0170369212809713 0.1710357201700593 )
( 0.1919735882242513 0.1209981571877583 -0.0054218501960873 0.1798618192049084 0.0062246080041259 0.2398903944312492 )
( 0.1951186371677353 0.1227043389841899 -0.0031518630541394 0.1863523861803921 0.0070187053993769 0.238888097430239 )
( 0.2038674959372718 0.1238279411449629 0.0020302596449029 0.1909365157025034 0.0073457817317656 0.230869143836043 )
( 0.2107893119825244 0.1218464108826485 0.0114491050078284 0.1911685787995586 0.007452706441961 0.2157439561035594 )
( 0.2159228394235161 0.1184233922485733 0.0219869537107003 0.1875430501933783 0.0083648534183239 0.1965327288860751 )
( 0.2210456273457352 0.1153017414816268 0.0325757903665254 0.1828288260534799 0.0097810268237102 0.1764758988067767 )
( 0.2255515975986454 0.1130579338133637 0.0424172167318101 0.1778379987546799 0.0109259232946627 0.1571534918707714 )
( 0.2302513051798537 0.1120020415539316 0.0502999855756271 0.1734494432601231 0.0118029251428383 0.1404694294764502 )
( 0.2362971140984255 0.1134582477696378 0.0570278898202989 0.1704998265541018 0.0118236983815568 0.1270203045954159 )
( 0.2428220733596549 0.1177024479700419 0.0616123965166891 0.1683519771140953 0.0106081208355312 0.1188201208128813 )
( 0.2498064729615004 0.1247906532356255 0.0636758874466708 0.1672311947501443 0.0080816658813435 0.1165333832023835 )
( 0.2593207550679459 0.134689188889117 0.0638301052051248 0.1685534070915609 0.0044323048524743 0.1198494131613422 )
( 0.270348605281956 0.1466797295059203 0.061662364027528 0.1732721267144782 0.0002245773117701 0.1259871083203531 )
( 0.2822622555840208 0.1603477344354014 0.0575859403802842 0.1802682769905919 -0.0043073692645679 0.1336877130056174 )
( 0.2949049602652021 0.1749024387123155 0.0528650146654127 0.1882723651610865 -0.0088158121597919 0.1425624185070985 )
( 0.3083384581209929 0.1903769061402339 0.0475166262940623 0.1973543882225465 -0.0129409186963149 0.1518496060947954 )
( 0.3230236906596163 0.2066998314369116 0.0415476786557629 0.2070805828678069 -0.0172033103350871 0.1622052443803528 )
( 0.3394093723588426 0.2244685950239447 0.0346930104721686 0.2175957819605851 -0.0216967238638977 0.1742585753667754 )
( 0.3574907862849007 0.2432163493728595 0.0268777504930449 0.2287168863377461 -0.0264280556366783 0.1869205874806107 )
( 0.1853476906331493 0.1170380463857735 0.0021419101507991 0.1852843106462944 0.0073160196115356 0.2435455913197818 )
( 0.1888762825455795 0.1170587434977183 0.007325881635314 0.1908786076115576 0.0088068250649555 0.2369368011223855 )
( 0.1989909007643872 0.1172616247598161 0.014252443804734 0.1939212619746457 0.0093480686843741 0.2216257479435253 )
( 0.2071885396075897 0.1155913357233141 0.0236046047581243 0.1929974701101179 0.0096532551338879 0.2005920014400748 )
( 0.213682991266962 0.1132831990217683 0.0338659356246753 0.1895042741777383 0.0112327894091718 0.1768095245323377 )
( 0.2191999857362353 0.1117549982801595 0.0423479771038561 0.1862476774162823 0.0124750333254971 0.1545697396287508 )
( 0.2239813506603111 0.1118324614336647 0.0494065517026156 0.1832268910905964 0.0127621033596358 0.1343467202989745 )
( 0.2299581950320421 0.113915327450515 0.0549278494229052 0.1802684574403974 0.0125038346318391 0.1188977386032632 )
( 0.2366206822914262 0.1186733073500436 0.0587169916041898 0.1788535410791908 0.0111552389507927 0.1091294194425032 )
( 0.2445912371793823 0.1269608091913155 0.0601789622348311 0.1797809671292522 0.0083249904385923 0.1048767330759373 )
( 0.2551506059178485 0.1391391622872919 0.0592615632384691 0.1819712937855772 0.0042646686252699 0.1074018713500302 )
( 0.2684865640061794 0.1539680130686678 0.056871205385156 0.1861537317533727 -0.0005485039238148 0.1161663694086583 )
( 0.2836214885054623 0.1710012574658717 0.0519935881366335 0.1946983516059314 -0.0061813388564179 0.1268488244480675 )
( 0.2992265850381094 0.1892443729663679 0.0455497114099179 0.2054097383384788 -0.0117991858698878 0.1387938230996224 )
( 0.3154584585518702 0.2075461127065646 0.0393375858563173 0.2162603536690472 -0.0167382891286998 0.151194403963185 )
( 0.3324040604216187 0.2267459004564026 0.0324286622927877 0.2283447566510218 -0.0214954501856177 0.1631779592988287 )
( 0.350054750274795 0.2465968692120924 0.0248228026489419 0.2414461465725005 -0.0265593744780286 0.1758221557253171 )
( 0.3700388101652676 0.2675783433196536 0.0167503415507603 0.2548610387477736 -0.0316456713487457 0.189473980362207 )
( 0.3925084138573218 0.2897424200213279 0.0079392313319045 0.2684019948172328 -0.0366894087483614 0.2035717076331518 )
( 0.1803520836857909 0.1124070988521521 0.0116196368383999 0.1904099514759326 0.0101455405809382 0.245832682699402 )
( 0.1857395060645237 0.1118750367741512 0.0175274901516948 0.1950515806034867 0.0114568773866657 0.2330965647921515 )
( 0.1960023678233628 0.1118632301284096 0.0241364711457237 0.1966783937994369 0.0113868679573647 0.2101066653112772 )
( 0.2047500416977566 0.1112508745287262 0.0326050144938964 0.1960425223405364 0.0117569345069978 0.1842905437632099 )
( 0.2118064050510281 0.1105972237327391 0.0404371675538274 0.1946106396231611 0.0128814156480953 0.1578558421901097 )
( 0.2167586657342953 0.110698704698721 0.0464132588186654 0.1934285797528776 0.0133600382272028 0.1343771623359088 )
( 0.221124083394531 0.1127409933657939 0.0510993778450648 0.1920055812435855 0.01278000674187 0.1148114782790735 )
( 0.2276304996902648 0.1179976576164188 0.0543709310358775 0.1910325765475512 0.0110877923477914 0.1017471683198474 )
( 0.235380907291827 0.1264620660407049 0.0555676294543703 0.1917146642773365 0.008248947268836 0.0964576187504944 )
( 0.2461198719393078 0.1389645909579716 0.0547754112221942 0.1951115727049193 0.0040931727730017 0.0976058299800281 )
( 0.2607548466921833 0.1554970397147341 0.0518171295639655 0.2008529875720938 -0.0011831502930012 0.1052872956948212 )
( 0.2770864696269811 0.1746874444387428 0.0470094579122868 0.2092114714987088 -0.0071818752144647 0.1181402045526215 )
( 0.2954168478266368 0.1960411904195579 0.0406287800988414 0.2211668389727019 -0.0136583334530467 0.1329851785056594 )
( 0.3143290547413457 0.2180123289652194 0.0333027861282411 0.2349300318748298 -0.019860257118443 0.1480706012208398 )
( 0.3330942557970567 0.2399706552615827 0.0256151170071736 0.2496955326700761 -0.0255167771669391 0.1620688458620238 )
( 0.352592898949162 0.262688128342305 0.017485910934986 0.2656138045710545 -0.0309976220505782 0.1754997505792884 )
( 0.3736329660895681 0.286264083555484 0.0090865103947871 0.2824800407641248 -0.0365308726050138 0.188973300275158 )
( 0.3979979870298112 0.3108746761877652 0.0003206352217118 0.2990968129915496 -0.0419299678525818 0.2025167291345578 )
( 0.4265541303071615 0.3370580317192508 -0.0089270044146808 0.3150410330334058 -0.046729188472777 0.2162424021817815 )
( 0.1775923603738657 0.1085828417927759 0.020915565707044 0.1951382350843133 0.0131353818148103 0.2464320247749049 )
( 0.184135984417831 0.1079417751283299 0.0255230492804785 0.1987612430434687 0.0136633963953216 0.2271829151594596 )
( 0.1941759513198723 0.1081534563435437 0.0311984095343178 0.2006134966729943 0.0131773964180571 0.19828507078548 )
( 0.2021106433302508 0.1085507988201062 0.0375819423305439 0.2013663670692181 0.0130974394311453 0.1690664438400771 )
( 0.2074200130018346 0.1091001079486454 0.0422980952808849 0.2015077612863769 0.0132446528789668 0.1405005920710702 )
( 0.2118917665056164 0.1108614519684798 0.0462672047916286 0.2022607832493186 0.0126657915997632 0.1165756023104723 )
( 0.2172398018194617 0.1151736467979594 0.049197607146087 0.2034789878057829 0.0107988072682458 0.0994008630326381 )
( 0.2240013773501941 0.1229542791948778 0.0503984104234703 0.2048010918070148 0.0077144454041673 0.0902575901120307 )
( 0.2337291246258805 0.1348056457605552 0.0500187878769367 0.2074210963429523 0.0038509919037228 0.0893175295870246 )
( 0.2470090757847138 0.1513253151195681 0.0477127042026367 0.2131370641135183 -0.0010472004404372 0.0951255598467587 )
( 0.2640588161803686 0.171960898710554 0.0433813873858324 0.2226426670739344 -0.0072330240191877 0.1072342641144249 )
( 0.2839911649938613 0.195926643581811 0.0369658300125 0.2358875535909886 -0.0145919454748189 0.1237433396031274 )
( 0.3046365688993041 0.2208590879036979 0.0296492783138809 0.2516681529608373 -0.0216521040637174 0.1407847601101264 )
( 0.3260733523810827 0.2461701832957579 0.0216219570034466 0.2690110763125393 -0.028390793681383 0.1573832707608841 )
( 0.3477629446665833 0.2721964424607697 0.0126821247066953 0.2885405495513779 -0.0349299768081847 0.1722009459480069 )
( 0.3705360478929404 0.2989784230776164 0.0039895827131718 0.3091773455426833 -0.0408828319202214 0.1860514061002288 )
( 0.3965064089560605 0.3270899968730871 -0.0047374894632862 0.3302625877734755 -0.0463534436486273 0.1992004616474766 )
( 0.4264632572232296 0.3561614457951745 -0.0135442284312527 0.3502634578734955 -0.0512052158472374 0.2118029868363147 )
( 0.462256224073917 0.3875879953220829 -0.0224576206616656 0.3694137609394177 -0.0551161878920982 0.2246008100451676 )
( 0.1750626132259319 0.1050947422247526 0.0282751745117551 0.1992204023538112 0.0151581073488356 0.2449623312098712 )
( 0.1820183619457565 0.1051011851041439 0.031388161747368 0.2030675536525879 0.0153029003577082 0.2199591081668436 )
( 0.1918179262889799 0.1061002262333523 0.0348201728471598 0.2066696319340427 0.0140227771043752 0.1856272079407225 )
( 0.1975925600054829 0.1067800248270265 0.0382971617941267 0.2088356094121971 0.0129793624427647 0.1541180723945596 )
( 0.2011701327717713 0.1081564194785821 0.0411734104232386 0.2108073518208923 0.0121367787948758 0.1251610477349134 )
( 0.2054291388554507 0.1115754477857334 0.0434616911975195 0.2133459165332437 0.0103926911847691 0.1023472051002477 )
( 0.2117918733940184 0.1182440045931171 0.0450467050103994 0.2162345891546181 0.0074495902626528 0.0882932850593826 )
( 0.219725907683974 0.1286896786607996 0.0452153011321685 0.2197832424766779 0.0035744134143122 0.0831647865449713 )
( 0.2317218910970476 0.143965705608627 0.0439115486497912 0.2250389677466257 -0.0012337987722773 0.0862047749887629 )
( 0.2466626613657179 0.1640730428247051 0.0402964060060106 0.2345064712510876 -0.0070762229484271 0.0958114469879398 )
( 0.2652317014170841 0.1883683995907994 0.0347446063260566 0.2482478981865448 -0.0141823081977886 0.1113146065837999 )
( 0.2878955689927324 0.216436077717656 0.0275904533853416 0.2659882819860349 -0.0222890971172397 0.1301337154534407 )
( 0.3112929349185586 0.2455198471881993 0.0192093386482728 0.2863445969892191 -0.0299857859322045 0.1482993481601925 )
( 0.3364207861052036 0.2753946475517893 0.0104313935550468 0.3085017577573859 -0.0372964628102705 0.1656894314783284 )
( 0.3620114428770893 0.3059477001520627 0.0013801245841441 0.3334676410022666 -0.0443168183231569 0.1813244349080207 )
( 0.3882839543088966 0.3366429731947554 -0.0071681768798185 0.3591237258774463 -0.0502672109806389 0.194666035833566 )
( 0.4187044463418614 0.3690390455204883 -0.0155632084771666 0.3843789737848634 -0.0550793988092419 0.206442357691044 )
( 0.455812522086816 0.4041019499266464 -0.0240561395229187 0.4086170047219186 -0.0590884452808238 0.2181083973958883 )
( 0.5011318137070048 0.4423501974710175 -0.0329724608221885 0.4316830161278643 -0.062498416159084 0.2299675580901171 )
( 0.172479692687608 0.102371415339131 0.0334160341606502 0.2035628103032987 0.0175182621766263 0.2436630356806295 )
( 0.1785218897923272 0.1029955806114672 0.0343697271255498 0.2084968652023696 0.0163822399864016 0.213469420847382 )
( 0.1868981790517114 0.104645326664405 0.0354152288901947 0.2138574268300463 0.0137873875942526 0.1742176653290939 )
( 0.1914024351190984 0.1058945353132696 0.0368808982920194 0.2181439119800368 0.0118804114521196 0.1402546067352894 )
( 0.1947748678350738 0.108387510199369 0.0385064861520024 0.2213272477041371 0.0099236245001101 0.1120038620997726 )
( 0.1992059241386876 0.1134148298214828 0.0398794004201743 0.2246571748693214 0.0071958525786742 0.0916205067861291 )
( 0.206035752330019 0.1222274614743235 0.0403684598242321 0.228910954608339 0.0035417720054873 0.0806643678151975 )
( 0.2149418187768496 0.1351669407248103 0.0397337487092289 0.235877221933605 -0.0009838677226426 0.079073841724826 )
( 0.2277374982663735 0.1533770841974784 0.0375261585615328 0.2458171253773202 -0.0068047715026747 0.0855616006109783 )
( 0.244837053865268 0.1768527555109529 0.033174396490937 0.2587817459525337 -0.0135874464994712 0.0982447579481409 )
( 0.2663443569391182 0.2052634167959194 0.0269126614515443 0.2767107935893139 -0.021676215556901 0.1166562688110555 )
( 0.2910334550033635 0.2371574042606227 0.0191607359289478 0.2991435318736599 -0.0300657378469066 0.1368521017844647 )
( 0.3172900823545415 0.2704860222915439 0.0103349481865321 0.3248046403031598 -0.0381299378396795 0.1558427909712584 )
( 0.3458262658474196 0.30537451267999 0.0010828681748127 0.3535442031853051 -0.0459743615211117 0.1735357480954081 )
( 0.374323855310998 0.3397365446547924 -0.0075115984785137 0.3837306952789481 -0.0526748978500858 0.1880595549423376 )
( 0.4045757507784199 0.374517190290679 -0.0156988003922588 0.4139103960033355 -0.058169947079025 0.2001332384514147 )
( 0.4410247665911108 0.4129661942148296 -0.0241647501492461 0.4450278408395229 -0.0629202782066701 0.2112817215809071 )
( 0.4863839149225369 0.455530387970907 -0.0327227317784461 0.4754000099506884 -0.0668261205779276 0.2224653634012559 )