/*--------------------------------*- C++ -*----------------------------------*\
| =========                 |                                                 |
| \\      /  F ield         | OpenFOAM: The Open Source CFD Toolbox           |
|  \\    /   O peration     | Version:  2112                                  |
|   \\  /    A nd           | Website:  www.openfoam.com                      |
|    \\/     M anipulation  |                                                 |
\*---------------------------------------------------------------------------*/
FoamFile
{
    version     2.0;
    format      ascii;
    arch        "LSB;label=32;scalar=64";
    class       volScalarField;
    location    "0.0001";
    object      k_LES;
}
// * * * * * * * * * * * * * * * * * * * * * * * * * * * * * * * * * * * * * // 
 
dimensions      [0 2 -2 0 0 0 0];
 
internalField   nonuniform List<scalar> 
13597
(
0.2152656496535899
0.2136399777871958
0.212573838077133
0.2148739298819956
0.2183468581491062
0.2201746185510085
0.2223468909336663
0.2248962455231012
0.2268315480835898
0.2286936644227682
0.2292509061414596
0.2292887203630466
0.230055978299471
0.2294814966947643
0.2275153785332298
0.2261530900258393
0.2256685936495591
0.2243049718952743
0.222864521927688
0.1998417560128995
0.1960979846722553
0.1926383949109502
0.1940826710402666
0.1974437277677015
0.2011428238432712
0.2056157209670248
0.2111746925349363
0.2163332140962698
0.2212358433964612
0.2251905328236314
0.2281850855623071
0.2310701329857699
0.2331003522153282
0.2338672556559148
0.2345511926530935
0.2356134899635208
0.2364775974810267
0.2375405414120647
0.1888838633606759
0.1846775034824693
0.1825739919228936
0.1872124824607681
0.1938465139476731
0.2016827913742929
0.2094855190070206
0.2167041910595723
0.2227582393391602
0.2282409019558011
0.2321987941058364
0.2348810256913066
0.2367676707022095
0.238080056492456
0.2396340757866686
0.2409630694794301
0.2424813535528328
0.2446593531125274
0.2474460967423411
0.1827590050888964
0.1809847659956855
0.1835481920328977
0.1928554763848046
0.2023600307547202
0.2114880256159066
0.2199690483865289
0.2269803876254503
0.2319172224525109
0.2354721907672188
0.2375947103339596
0.2389644759705129
0.240943073960118
0.2441257127223895
0.2479535715774392
0.2516828523852089
0.2554422678967706
0.260113718898823
0.2654021996143134
0.1822377162155886
0.1829782076742569
0.189699030878546
0.2018714929024845
0.2118673482035072
0.2205563189897274
0.2275323445472213
0.2321758270599664
0.2352950928388825
0.2378648451733174
0.2407050735359213
0.24435371619669
0.2495303024845615
0.2559573555062673
0.2618446079941289
0.267500804807478
0.2729607101607914
0.2785416475427023
0.2841472778202014
0.1834883898405249
0.1860822924425494
0.1952364515643515
0.2081875946785188
0.2172488969382202
0.2242278360925281
0.2293197072113023
0.2325618167386948
0.2356169982005619
0.2397821122742688
0.2452392540657913
0.2517074159705173
0.2592520292167676
0.266600686713971
0.272579042697398
0.2776970890622358
0.2824801250993604
0.2864791559295543
0.290024240420512
0.1842200929893816
0.1885720074543003
0.1994281923538358
0.2111242538181754
0.2187129768529914
0.2240527432901631
0.2279785618692359
0.2316534990620535
0.2355951584098075
0.2412796362834586
0.2483348963266458
0.2562894682206745
0.2645397598000055
0.2715679732788517
0.2770343536775706
0.2810151909496592
0.2839925954093681
0.2863802745164922
0.2880752159868796
0.1847151355993069
0.1898866509243412
0.2009387362627054
0.2108635248565182
0.2168243841309455
0.2219309511712765
0.2256751820877869
0.2298631032307892
0.235376742889187
0.2419216271749835
0.2500413398343005
0.2590854192559561
0.2668612679037083
0.2728366225917509
0.2771327513218162
0.2801098075012629
0.2821960071358257
0.2840628087149325
0.2852997410890671
0.1837818203720439
0.1887933528692239
0.1993020639181354
0.2082675594421698
0.2137468682107917
0.2188888130051698
0.2233032991208915
0.2286801287190588
0.2358612241023336
0.2430392566564676
0.2514446101181398
0.2603078995733754
0.26702664838122
0.2724596574181972
0.2763753271932875
0.2792933402059445
0.2818437596523294
0.2844505764108829
0.2871557443185432
0.1829766206895089
0.1878246996772693
0.1973224864590889
0.2057353886678802
0.2117761805944361
0.2170775415120279
0.2220073723174408
0.228391475370054
0.2360416239887368
0.2436079404590824
0.2521502145110434
0.2604850848097901
0.2671115241637803
0.2728275781727506
0.2773518430422384
0.2815263550467438
0.2858682387546667
0.2905111766945148
0.2958837402035221
0.1821175561878824
0.1870790436532947
0.1962993840273748
0.2037324914073096
0.2095824461139886
0.2151657372434862
0.2207126979811403
0.2278923018145429
0.2360522661590608
0.2442099139745793
0.2529850698692128
0.261593594778577
0.2688023771364473
0.2754541817032716
0.2817913708196104
0.2882177859850902
0.295223088485521
0.3029946256199756
0.3122064756533658
0.1814583298929333
0.1868950633461877
0.1961334754537924
0.2027772751985984
0.2084242438698026
0.2138297666669751
0.2201887313726462
0.2279569384912479
0.2362508826112792
0.2451518749985254
0.2546411709562672
0.2640717232375085
0.272713037025357
0.2814473592216952
0.2903946011185534
0.2996394000903303
0.3097936051083748
0.3217218960840904
0.3359272698415126
0.1819782306934222
0.1874698600572778
0.1962087413650663
0.2029067049522143
0.2087637639811519
0.2139310534264505
0.2202637812912553
0.228270596092152
0.2369439819877267
0.2462399028596649
0.2572302609894334
0.2685629069502519
0.2793719904084609
0.2909289555434303
0.3026953878580488
0.3152199903086279
0.3300117951808383
0.3473301266305695
0.3660923460444175
0.1838597872010763
0.1888895107685588
0.1969541005822039
0.2035524846802879
0.20881313890677
0.2142296380112704
0.2207064760800422
0.228316455449484
0.2377527990501307
0.2487429972040439
0.2613792567923326
0.2749526730881746
0.2885870551434967
0.3028976060937055
0.3181645556143426
0.3354627974657372
0.3558767897685204
0.3781922422395378
0.402325882167981
0.1868396900642857
0.1913642535349248
0.1990292340506794
0.2041915303543624
0.2086682939318703
0.214199708313974
0.2209240301466757
0.2289527683059327
0.239466616612012
0.2521996911278958
0.2668727730627593
0.282953591209799
0.3001471033294328
0.31788292505209
0.3374354350220788
0.3602160839518185
0.385860817350551
0.4140732488696866
0.4508064767471454
0.1904578660880593
0.1938391392523681
0.2005082666340885
0.2049010401076163
0.2090877471597559
0.2141203124108871
0.2211381138483419
0.2304514139658663
0.242635847194477
0.2567928054203741
0.2739317823471212
0.2934565357568371
0.3139471270169893
0.3355748625854507
0.3599287683861704
0.3876736015500217
0.4193845562156137
0.4595288372167836
0.5185363620537189
0.1937290125889922
0.1962801441877101
0.2017563165455375
0.2056793089937812
0.2096744429771664
0.2149092862084358
0.2224218746902933
0.2327583896136624
0.2464640432186186
0.2626686742881823
0.2817140200608652
0.3046350597834987
0.3292755123780496
0.3552738927708388
0.38445304692728
0.418260968215548
0.4600593673468421
0.5195978595759775
0.5993570930888263
0.197612939630369
0.1990983709162318
0.2034528957051104
0.2068760335507301
0.2104676547222395
0.2160397606629245
0.2239408001353514
0.2351422265877744
0.2505934213716805
0.268802144158875
0.2906223328961986
0.3171564420839177
0.3460192700944784
0.3770155032599677
0.4116563858586625
0.4527901492057249
0.5106328080463548
0.5928361713763135
0.6712692144611091
0.2025161599945396
0.2025307291802504
0.205511217993466
0.2084710763240667
0.2117440252392003
0.2174602168919614
0.2257449787975728
0.2376826771693119
0.2548678603807708
0.2756689809343649
0.3014886178582541
0.3312000602229503
0.36419443668628
0.4008639930341345
0.4414232655740157
0.4942575806339887
0.5729424151133726
0.6739092202233983
0.7262710722451602
0.2076861185776329
0.2065854774488178
0.2080194828624213
0.2100603334657368
0.2129274778552642
0.2188892083622901
0.2282282176460427
0.2411124902488848
0.2594824580329031
0.2829138530723071
0.3128177492727075
0.3465447690249755
0.3838464648312805
0.4252555648366856
0.4755859767579639
0.5438718183410344
0.6444295780778273
0.7529806965064157
0.7621204639590419
0.2130336066419027
0.2105544739884263
0.2102812252531065
0.2114466876021604
0.214093536457627
0.2202795184266512
0.2306494379111202
0.2444773979622558
0.2648056956057495
0.290919716808156
0.3244683413620459
0.3635942275929705
0.4047318060060642
0.4499910986471338
0.5120189081879638
0.6013959310808996
0.7223154261361011
0.8237207814799439
0.7596910239988809
0.2181588399412326
0.2136032167222893
0.21217828903568
0.2126253941891537
0.215266730719905
0.222308676857191
0.2334499095674863
0.2481445748745724
0.2710311007615631
0.3001862303249263
0.3362964205269415
0.3787121986046912
0.4238987790237247
0.4773738177563341
0.5514737706195465
0.6641512127177797
0.8000111616520824
0.8804652046883155
0.7071629437497324
0.2225629601294833
0.2163175743937729
0.2138779981431678
0.2136368531382504
0.2164381738014922
0.2241700935627
0.2362076257070336
0.252647014287457
0.2778625719679435
0.310292313744645
0.3493206111299586
0.3937659528273033
0.4427620585700086
0.5060671288620446
0.5989270840998908
0.7328274319825239
0.8742800249371576
0.8978617916037097
0.6480612519360858
0.2266192925492204
0.2191885832468016
0.215577323623806
0.2149337191427945
0.2178631572185697
0.2257338752677839
0.2383437071273389
0.2566665959201087
0.283653193611218
0.3183832916919262
0.3609379745003908
0.4103948945160574
0.4649138540142861
0.5379449435284712
0.6506578315254501
0.8030799870456335
0.9419404640476176
0.8877202761820907
0.5939296877206194
0.2307930689825372
0.2219568626399485
0.217324372263087
0.2165994918725694
0.2195872996109004
0.227770922238612
0.2409172998025738
0.2604619185213869
0.288450461478637
0.3254694023922144
0.3719019685635
0.4263156598623089
0.4875396828226543
0.5757949413560585
0.7044659068279201
0.8681367929256266
0.9910607458151024
0.8711171684752537
0.5333829290625173
0.2345405841746368
0.2245929635332218
0.219263454631856
0.2182755569555229
0.2213861447906209
0.2298527736523255
0.2440228819477938
0.2646139849914026
0.2936557084600337
0.3340918281020745
0.3837512820312123
0.4415357168607908
0.510262519910652
0.612561804089775
0.7564151239643919
0.9294307292158442
1.0081606046597105
0.8308780430504117
0.4883058324385522
0.2373093988769997
0.2267400919699523
0.2209984990632076
0.2199336546259131
0.2230668891788381
0.2317257305833456
0.246895674876595
0.2687900742946659
0.2995923394688953
0.3428589935231501
0.3951170040739285
0.4559216127383917
0.5326724132574662
0.6455968041004081
0.8065935248015867
0.9838580748289932
1.0151199987056576
0.7852560633551702
0.4504491294956538
0.2396457607978073
0.228351192910893
0.2224316555311103
0.2217915683397634
0.2248191545777932
0.2336598201959197
0.2491497248797969
0.2724571700909074
0.3056358488133971
0.3520777550424717
0.4074107076031309
0.4697695495186128
0.5537449945624965
0.6792703009391521
0.8607022717357024
1.0359573819935708
1.032879768984343
0.7551241200954859
0.4183247079140462
0.2419146231489746
0.2301602595145278
0.223842084894523
0.223310753709389
0.2261500559938481
0.2352031860606869
0.2512027351246005
0.2757039800285742
0.3113948606521774
0.3607316985756884
0.4182249165632365
0.4848044827808541
0.5803549842952047
0.7152049122744772
0.9085883918879988
1.0752819854003806
1.0350996432769302
0.7279203119909307
0.3991821278331064
0.2441023957800984
0.2319261299715392
0.2251771629462714
0.2244187634295585
0.2273933722894449
0.2370245116550079
0.2534073626131216
0.2787589950022774
0.3168586533052047
0.3672975871927378
0.4262929273725995
0.5000372227097054
0.6042739289886417
0.7493261873990746
0.94932911233334
1.0755587156320898
0.9994399028771458
0.7015059699298619
0.3885818150518921
0.2462613951632192
0.2337366913684207
0.2266712365594265
0.2256312989694844
0.2288308974533838
0.2393026828570416
0.2559379868757171
0.2825136249765538
0.3224493633105204
0.3736430104760299
0.4350904924110484
0.5147496783739718
0.621725209504712
0.779620447545955
0.9866586723713484
1.071170474912975
0.9628870011396632
0.6779054761641545
0.381041552170812
0.2485035273104381
0.2357801607818944
0.2283762383617661
0.227208794725504
0.2307119643558375
0.2414784189101653
0.2587480221590824
0.286860611214515
0.3280934242931275
0.380554612347881
0.4443860988298758
0.5283780706350025
0.6403695047596303
0.815550480300096
1.021817291262589
1.0851497713645508
0.9549646820110236
0.6577538916492406
0.3708436631856179
0.2501974003205794
0.2374406874309208
0.2297916041010046
0.2288107686149493
0.2326632793520139
0.2433464325043259
0.2610194171905054
0.2903524330952687
0.3331577210763556
0.3877233619288205
0.4536824369340451
0.541349028258927
0.6578040316917566
0.845763577842074
1.055352509844538
1.1046380719241329
0.9568450491301896
0.6442035511378944
0.3591339212021805
0.2515281361636898
0.238643435106644
0.2311708350752096
0.2301131218873955
0.2342891083433106
0.2450181093469808
0.2628832771396476
0.2932592513843773
0.3372499108157141
0.3947995490270873
0.4639922849365541
0.5539830449197284
0.6735713248930159
0.8679697934607187
1.085002664492669
1.1261616808063717
0.9614138434035672
0.6363783451889335
0.3528042988599655
0.2531038318638336
0.2397689102078364
0.2326497960882816
0.2313544463832627
0.2359339327155509
0.2465720906717905
0.264557747953139
0.2957008665178978
0.3407708502181979
0.4006383434819396
0.4723518698069439
0.5644736119069069
0.6898097068908143
0.8907767926131491
1.106423638064674
1.138215317875061
0.9622420202156764
0.6301590666964775
0.3494431127101248
0.2544128048334116
0.2408122083706889
0.2338502365401364
0.2326471598582148
0.2373109253103595
0.2482930317977635
0.2662919267678083
0.2976173631386203
0.3443089445750313
0.4051425965240034
0.4786101062776276
0.5736644689563576
0.7043925321024755
0.907907675520108
1.12337834199296
1.1489562536337978
0.9598739754670144
0.6228453097720806
0.3448193000513125
0.2557555221948165
0.241875828180686
0.2352727804318338
0.23413802540977
0.2384995421914848
0.2499337722857578
0.2685181344207473
0.3000909514675774
0.347957934476452
0.4096887518482479
0.4847610835495131
0.5829831264087023
0.7175235471162834
0.9235633004462916
1.1385014054472191
1.1558578812566696
0.9619591825029892
0.6218298122237663
0.3406626171119224
0.256989398607895
0.2427895363985269
0.2364439545074459
0.2353128131517691
0.2395956745918154
0.2511913926060955
0.2707201049117533
0.3026143582671914
0.3514875300227518
0.4139005095841814
0.4905045904593652
0.5915045327091555
0.732376904239114
0.9404284541309804
1.1464720115996987
1.1582545092083685
0.9598152237525204
0.621092020655329
0.3390029962080333
0.2576379598472024
0.2435165875284025
0.2370542035933076
0.2360437926397417
0.2406672409977893
0.2523169459542704
0.2724001600961572
0.30464685527313
0.3547625423918487
0.4174698392037282
0.495252198252713
0.5985010820197223
0.7470275097010852
0.959478374658929
1.151473987472703
1.1560513618317705
0.951214129919258
0.6153800631556349
0.3391677446133883
0.2584984361635431
0.2446184097171777
0.2379148195457933
0.2370084608733985
0.241948428755335
0.2535537720774456
0.2737254337207267
0.3060609529201656
0.3568996643677197
0.4199679267360892
0.4983335290150035
0.603693656024022
0.756131825380335
0.9741713770541344
1.1572465735452324
1.1503786523097244
0.945869240719075
0.6124861911653432
0.3396638697993559
0.2597285911050589
0.2459031695904765
0.2389181751439676
0.2380461488395795
0.2432058140209995
0.254792300061822
0.2746818375337829
0.3073115017850341
0.3588977310549832
0.4230899690838147
0.5018265143690365
0.6095131909053833
0.7640557211043904
0.982616171398498
1.1588041615532785
1.142573625941621
0.938981396468753
0.6090393659215905
0.3401897294801822
0.2605741143317955
0.2466700582946456
0.2395950977884109
0.2389388198930316
0.2441920027552723
0.2558132339789206
0.2756716486327727
0.3088729387044857
0.3615692042116326
0.4277319618889002
0.5067107473617014
0.6153003112447932
0.7711223463605185
0.9871962857962708
1.1602112188794729
1.1399617806063234
0.9318755834189164
0.6032709191877487
0.3394444080909907
0.2613831760789834
0.2475170183999822
0.2402825793574756
0.2397894564455465
0.245086225164356
0.2567779380950974
0.2768497867787103
0.3101451763758018
0.3630786141411153
0.4308419569102075
0.5107923652920227
0.6188303999303297
0.7731031580301231
0.9923083283026928
1.168004047167188
1.1407556920555804
0.926130811761376
0.5981970567128754
0.3364922086505073
0.2625561831258243
0.2487311012114274
0.2412255238686627
0.2407319547543856
0.2460040446866461
0.2576489548231948
0.27753092038752
0.3108798409501143
0.3648817063580972
0.4341839062411752
0.5146709156907462
0.6233094558569872
0.7766900292303486
0.9976770351266452
1.167293160957645
1.133153810726018
0.9207938565608916
0.5953403810414138
0.3351851258959329
0.2073871502171515
0.2075332500112586
0.2094108502312241
0.2140525740898836
0.2190190022471441
0.222792887091702
0.2260491539080177
0.2290012539258483
0.2323335091739959
0.2352818302426512
0.2374481626500936
0.2399898417692345
0.2413459270168224
0.2421859985133117
0.2430337661971089
0.2425826816369967
0.2421684135567721
0.241381479986444
0.2399518455269265
0.2039204082323323
0.2045102275794157
0.2068630857812332
0.2125711596386542
0.2175077658383416
0.2213371285798576
0.2250516332108091
0.2281614127590561
0.2307540198166079
0.2329839305041852
0.2353704981836674
0.2381250535964205
0.2399294403836756
0.2408664294514278
0.2418133304162669
0.2416786405155454
0.2414512882049523
0.2413321402237043
0.2403087210385631
0.2001534832601184
0.2012101153723412
0.2035986154919865
0.2090521948810461
0.2131750342959181
0.2166672084769116
0.2194092825900321
0.2217979013225275
0.2242575560491178
0.2266796335535738
0.2296948423352703
0.23272655856051
0.2354230980371608
0.2375268436926453
0.2392396384127401
0.2407597935401522
0.2414013446965202
0.2415926864415161
0.2409790454688115
0.1996600202014601
0.2010961535649263
0.2035341082159661
0.2085857446430987
0.211566448658236
0.2150669525586204
0.2187985705233903
0.2223996245264635
0.2261272095696249
0.2301084370680871
0.2353558102371108
0.2405016606291818
0.2452651684441749
0.249564317211308
0.2524482532930934
0.2548720218626195
0.2564733550215678
0.2571449042413168
0.2571168751222925
0.2024658668764714
0.2042540680218779
0.2071781440739661
0.2119966900556376
0.2153269117080286
0.2199818958689084
0.226232187943373
0.2322290882992112
0.2387319289735479
0.2461609827708282
0.2539548139489471
0.2606851568711388
0.2661160188079381
0.2704825765126168
0.2730682811719829
0.2747501602762208
0.2756784214674727
0.2751996383363005
0.2734474476649134
0.2068558743423488
0.2086579525760273
0.2117105716428212
0.2179565300644796
0.2238904574591738
0.2309431375578958
0.2391843086806233
0.2479112498807696
0.2568082123464919
0.2656050223751316
0.2736091649208926
0.2798034406720288
0.2839980397820198
0.2859975640631287
0.2864572669593228
0.2862700251945854
0.2850803181631605
0.2829991295623641
0.2802650391152216
0.2131873506922136
0.2139416786905859
0.2171306823624764
0.2260711704341496
0.2344188336601548
0.2438106746048172
0.2538997596190327
0.2635595265749355
0.2727384715834327
0.2808334350151231
0.2870862393652608
0.2906210938397944
0.2922196714381523
0.2923527346295087
0.2913645882642628
0.2903055952373383
0.2888571965054171
0.2873638101187624
0.2860328066888284
0.2187565909474857
0.2187660610956438
0.2240028058898121
0.2346243403975015
0.2446500131345009
0.2556502249661294
0.2663378201939135
0.2752615226022474
0.2834288645019431
0.2895293237944139
0.2933243600007131
0.2950277928355931
0.2949949297743365
0.2946875105192151
0.2944175673472546
0.2945966935154985
0.2949547276653945
0.2957963987014553
0.2972333147887331
0.2229806813889176
0.2234881647997683
0.2306282760055829
0.2428037848800321
0.2541217714944505
0.2648547752739288
0.2748345066388524
0.2833436779919168
0.289900228673553
0.2937790416803871
0.2956924009819826
0.2968877675806671
0.2975786204199501
0.2984753509415135
0.3001328941761201
0.3025583369762648
0.305673409145468
0.3096616518827209
0.3147210534058391
0.2253210511774828
0.2270299591114283
0.2369579386210838
0.2501451505248595
0.261532012923717
0.2719158558834467
0.2806937946857225
0.2877875914087756
0.2922344060949377
0.2952194057423949
0.2973758914481724
0.2992321863761547
0.3018940735783033
0.3052111483749008
0.3094304401852206
0.3147959021918401
0.3216310598339879
0.3297755832635444
0.3392426913147619
0.2266932128956713
0.2307614386762393
0.2427156419211126
0.2560647533574454
0.2668866432847336
0.2763062099955871
0.2834687134337765
0.2890991452388717
0.293160646219148
0.2961136828251952
0.2991876984620372
0.3033043901647125
0.3084728104667596
0.3148533257360593
0.3227114649899909
0.3317625986899111
0.3427032081510333
0.355407214206192
0.3695896570569085
0.228673070868198
0.2346363661963774
0.2473525183885997
0.2600181505860632
0.2701420936155673
0.2783130004897801
0.2842874817806767
0.2892718576411137
0.293663476028454
0.2976606421152461
0.3028382813466165
0.3097456553265392
0.3177285732384673
0.3275261431636359
0.3394282671776722
0.3526076515349616
0.3678711614820978
0.385374270640991
0.4048585920014484
0.2305172015511285
0.2376520279369707
0.2515876089246731
0.2631275606082388
0.2723541754149466
0.2796127017667082
0.2847812530966453
0.2892892503473444
0.2939274943029222
0.300027473004967
0.308002372708873
0.3181371469488527
0.3296491691385626
0.342815812910092
0.3587613653631472
0.3766843657706734
0.3969910980206061
0.4202787654769173
0.4464486422914752
0.2328862158483679
0.2412498105794994
0.255188178585702
0.2654355190071922
0.2736178686286261
0.2798907428408374
0.2847917464803082
0.2895623176928353
0.2956598838412121
0.3038656264817573
0.3142870895667078
0.3277270023553926
0.3432626450623777
0.3601986910632887
0.3806087349825001
0.4045035500317414
0.4303613086906396
0.4595579504750893
0.4928332174927803
0.2372235449353307
0.2453026715741018
0.2575264028850641
0.2668618911137747
0.2741671601326841
0.2800378998159314
0.2851486981849042
0.2904169693658625
0.298128887983732
0.3085434163914445
0.3217505361737693
0.3382960136320001
0.3580308598419794
0.3801085766448186
0.4050653112859172
0.4346312203594311
0.4670887355653536
0.5033679591361557
0.548617338006966
0.2419242419715267
0.248629719072063
0.259535808091866
0.267953226657674
0.274400368267546
0.2797217657367364
0.2848863838848435
0.291299361193245
0.3003094353375197
0.3133698397974933
0.3297226206542462
0.3501420803959451
0.3743619041501646
0.4019595894538967
0.4321631423877782
0.4660555577089007
0.5060589368821384
0.5547744716290138
0.6191568161736978
0.245835579509052
0.2513419536435075
0.2616177497648675
0.268757227417429
0.2748423415333568
0.2794136797635415
0.2845831543077916
0.2926274662602346
0.3035214079820941
0.3188976553883538
0.3383359877367594
0.3630687377491686
0.3917102696015608
0.4240791327301331
0.4603730812264668
0.5007908333043839
0.5500833268344918
0.6165382377516799
0.7003268425273143
0.2496091725032848
0.2541884233857148
0.2637169170491871
0.2696259652033862
0.274997960128693
0.2795665616379687
0.285270379573612
0.2944401321191142
0.3076275490948347
0.3251182749396338
0.3478797954226801
0.3774292086949892
0.4109433748790758
0.4482518639450351
0.4900373507238485
0.539515405863861
0.6029766938209254
0.6928058011893393
0.7849155646105576
0.2537726358027579
0.2569350835160586
0.2647683563617182
0.2699887951161961
0.2742051009412476
0.2789863329919911
0.285914731965006
0.2962502596915993
0.3114395620843528
0.3314381877257904
0.3579631620148298
0.3917985040498015
0.4307227716829659
0.4734699527200267
0.5214446415773528
0.5829636909671697
0.6659593870301386
0.7757663175662042
0.8508324665953246
0.258028467171991
0.2597061909342744
0.2651500362822984
0.2694816029444402
0.2730669855800793
0.2777756239000298
0.2857998944288146
0.2977477877877496
0.3152120987468355
0.3381633599918519
0.3690128659195381
0.4070865657650315
0.4508449181301687
0.4997910031501911
0.5557544109109528
0.6306438363590204
0.7377448504187505
0.8544879041547416
0.8914573491992126
0.2621129463424481
0.2624623317279748
0.2657600687848147
0.2687152815579153
0.2720861219574939
0.2768659173945721
0.2856979368684639
0.2992179314137699
0.3184345997527737
0.3442589682029404
0.3797767983241681
0.4235397685123676
0.4717583794730552
0.5273360096428418
0.5940249610394384
0.6854909711348826
0.8132050822013607
0.9279731550119994
0.8961883347931943
0.2658403702798526
0.2640443417438626
0.2661639832032681
0.2683210230048956
0.2710621053561737
0.2761620333383209
0.2857524314084085
0.3006143008504734
0.3217561017249999
0.3506202403192363
0.3901042482075772
0.4388999741566572
0.492705004514234
0.5545942565587866
0.631652845161887
0.7465291701680371
0.8958132550206338
1.0003859794894856
0.8377519794456829
0.2687334168504589
0.2647263698721902
0.2659980765467858
0.2678157053824546
0.2700169036930628
0.2755957661073459
0.2862310009157963
0.3021634874866783
0.3258600091220648
0.3583131347226977
0.401303526282818
0.4552543317718654
0.5157100546540679
0.5842922924890704
0.6769494406895443
0.8159858916568612
0.975453787402334
1.01456608368255
0.7596012372726582
0.2706144787044759
0.2652316594254022
0.265308516721063
0.2667238053845547
0.2693244254277745
0.2754195457276531
0.2867789754140321
0.3036612291010974
0.3293631310450582
0.365862703962963
0.4128017282690458
0.471407480740494
0.5378760523412477
0.6153502966901847
0.7269470211257292
0.8870806171879281
1.038824573848675
0.986959985717062
0.6949494077398527
0.2721435714883468
0.2654564173166771
0.264576076765331
0.2654147125885622
0.2684419781976702
0.2748547664175413
0.2866916385917332
0.3050307129222154
0.332748554162057
0.3730138811609264
0.4249930414080751
0.4876328017246857
0.5592241016210656
0.6497984147126132
0.7781281343807849
0.9481944396976876
1.0796323517544175
0.9672369037838336
0.628165662800478
0.2732575059509843
0.2651919680952505
0.2634976003581929
0.2639688304356926
0.2671537432747916
0.2739243075627097
0.2865142884320741
0.3064663249365225
0.3368133388498553
0.3800279147973457
0.4358732773281746
0.5030930802961946
0.5786157444386009
0.6815401930135787
0.8285734501920916
1.002225221278636
1.078630116436253
0.9091014091727612
0.5653244651342876
0.2737527841611009
0.2645686604513964
0.2622644495102164
0.2626574851551175
0.2658716316389577
0.2728252986896841
0.2863638224025618
0.3077374377551822
0.3401655702032493
0.3859069520451206
0.4458966431971889
0.5179627555083565
0.5985338578300611
0.709947062888918
0.8736973537386399
1.0516275230334304
1.0793894901679035
0.8544027754872805
0.5124875830372239
0.2739381352315318
0.2638484115342812
0.2610326270479758
0.2615168075953393
0.2646217925571528
0.271780515129626
0.2859642066155465
0.3084449311798345
0.3426343815924623
0.3914512079694773
0.4560170498450595
0.5312270440005551
0.6196865070338556
0.7425301561076388
0.9223972302835072
1.1028942464003038
1.0985380313873818
0.8268329117467031
0.4765732875751154
0.2742138161741813
0.2633763755135592
0.2598803938983235
0.2602553081609885
0.2632014257556234
0.2708706476095864
0.2857647385089828
0.3096305737753127
0.345712711641053
0.3977850249703346
0.4645843887193773
0.5427581898362593
0.6404990963665056
0.7738414289637677
0.9627157612667716
1.128914995905205
1.0926020874498648
0.7970169171848989
0.451772977369104
0.2739913018823288
0.2628581878360301
0.2584700426523174
0.2586811283210152
0.2618377307874557
0.2701178729127081
0.2860870919545656
0.3115136557886244
0.3484762345237203
0.4025528020567509
0.4724229796049564
0.5563802880225136
0.6627039869019022
0.8006575393470261
0.99495887949667
1.1262631029428156
1.047341203841461
0.7526716283227088
0.4280903747488232
0.2732010969970938
0.2619453286161124
0.2568656443532593
0.2568375302884994
0.260334788073784
0.2692487840942081
0.2863027659903602
0.3132429195723364
0.3510632794966648
0.4064375586230673
0.4792804419224132
0.5672251470669609
0.6763636172951867
0.8233283960825973
1.0299766536205173
1.1250568175817364
1.002990777749823
0.7106124084062846
0.4073587968514446
0.2729458013261718
0.2609101423268598
0.2556976528978039
0.2552947315763625
0.2588815290237068
0.2683310302698073
0.2860308799540823
0.314325599976746
0.3544256900772786
0.4121716181875124
0.4862249457609938
0.5759758049423181
0.6874185172937628
0.8479664356623221
1.063252478494728
1.1365100956991476
0.9895890050716496
0.6836087614602077
0.3890946120801984
0.2730408089495936
0.2595954037988255
0.2545013389694598
0.2540135728716111
0.2578922110992654
0.2675647088397503
0.2853399490668311
0.3145295634230366
0.356765366453995
0.4173109212886221
0.4935040375593134
0.5855261665423852
0.702029957838746
0.8754469378937803
1.092126765939348
1.1544335516814053
0.9878277551017612
0.6647460836836185
0.3795587078201844
0.2723176136386123
0.258337540652434
0.2531340169144351
0.2528994372074235
0.2571112519211551
0.2669100136074146
0.2847909726190239
0.3144350353595848
0.358120759348133
0.4195886205754249
0.4967708995777383
0.5926912469146715
0.7136590310981621
0.8980999488090924
1.1118935528390943
1.1629726876549198
0.9871210119337808
0.6505569138511574
0.3699340476926422
0.271433947969722
0.2573576331097414
0.2517550370265588
0.2517547242875682
0.2560103533642865
0.266126201850059
0.2842544442569941
0.3142794033619541
0.3602258055954014
0.4223371350363381
0.4998325852127571
0.5991893216346187
0.7216700060423432
0.9126006891875998
1.126225340818783
1.1713434104674445
0.9857333041599592
0.6373747427385514
0.3588888920242856
0.2706651201609715
0.2561934442824928
0.2502918554840234
0.250343503064252
0.2545970043108153
0.2650251673927267
0.2834855795164082
0.3145748466181401
0.3623610256296268
0.4252600915550595
0.5045806829095415
0.6045065290877543
0.7272137536594083
0.9260408904339276
1.145333860970446
1.1815154963303016
0.9778759327030216
0.627439982742968
0.3542437780342327
0.2698688751733905
0.2551608001994091
0.2487533397871056
0.2487788324151808
0.25302226579595
0.2638862400339882
0.2826015113591965
0.3147607381411425
0.3639509986000921
0.4269862662260963
0.506463144568783
0.608169737760717
0.7357692028720325
0.940402074352196
1.1598828936797956
1.1862106213515782
0.9717375420338484
0.6226620580940961
0.3528302119774497
0.2689693632635097
0.2540175705702315