/*--------------------------------*- C++ -*----------------------------------*\
| =========                 |                                                 |
| \\      /  F ield         | OpenFOAM: The Open Source CFD Toolbox           |
|  \\    /   O peration     | Version:  2112                                  |
|   \\  /    A nd           | Website:  www.openfoam.com                      |
|    \\/     M anipulation  |                                                 |
\*---------------------------------------------------------------------------*/
FoamFile
{
    version     2.0;
    format      ascii;
    arch        "LSB;label=32;scalar=64";
    class       volSymmTensorField;
    location    "0.0001";
    object      tauij_LES;
}
// * * * * * * * * * * * * * * * * * * * * * * * * * * * * * * * * * * * * * // 
 
dimensions      [0 2 -2 0 0 0 0];
 
internalField   nonuniform List<symmTensor> 
13597
(
( 0.2081218079788979 0.0491203603090292 0.0402156266442949 0.0463255128253026 0.0250837648252988 0.1760839785029793 )
( 0.208462791462699 0.0506700640504979 0.0442227161527684 0.044831536938777 0.024408383139195 0.1739856271729152 )
( 0.2084455281548608 0.0532309443975606 0.0497302452034245 0.0422787878552377 0.0223307344980949 0.1744233601441676 )
( 0.2102146067295665 0.0567788807825933 0.0550205027110559 0.0419809296904518 0.0197995520433837 0.1775523233439729 )
( 0.2115925256762701 0.0601695608483455 0.0582036963551395 0.044113711673263 0.0173683418493068 0.180987478948679 )
( 0.2106249326430845 0.0626440293907673 0.0594285512570089 0.0466312132919473 0.0150682318159974 0.183093091166985 )
( 0.2104715347624689 0.0648596780770214 0.0597499946105555 0.0494601511818747 0.012904517770712 0.1847620959229889 )
( 0.2103875804677626 0.0675774766706767 0.0593113882073332 0.0530996473655245 0.0106817665349739 0.186305263212915 )
( 0.2095479245943164 0.0704518960349728 0.0577932977536148 0.0568793232508716 0.008830542410186 0.1872358483219915 )
( 0.2095727338685346 0.0728687135205265 0.0560912448579642 0.0604284775334135 0.0068806910902623 0.1873861174435883 )
( 0.2087727413746277 0.074892291510202 0.0537652299892997 0.0636988608684942 0.0042422831233482 0.1860302100397974 )
( 0.2083662485476503 0.076911013933995 0.0506487615003463 0.0665895711872107 0.0021025278854614 0.1836216209912321 )
( 0.2093273815599013 0.0789466363311353 0.0473813099186152 0.0693982532202603 0.0007376768247499 0.1813863218187802 )
( 0.2093067292863452 0.0806223630842913 0.0437238353941846 0.0717695556212578 -0.0009611939718442 0.1778867084819256 )
( 0.2085626126943796 0.0817567035375105 0.0400242087909223 0.0732833320912493 -0.0026038508812062 0.1731848122808306 )
( 0.2089972761685084 0.0826950837095863 0.0370418353869497 0.0747093568257314 -0.003751325389614 0.1685995470574387 )
( 0.2107341160309265 0.0836880582016197 0.0347086443580289 0.0763250668876232 -0.0044984447384535 0.1642780043805685 )
( 0.2117383174209624 0.0842745796781856 0.0323563426898462 0.0775155428528327 -0.00469155557418 0.1593560835167533 )
( 0.2128428545176361 0.0850240676324267 0.0299713781191634 0.0788352779974203 -0.0044750267583698 0.1540509113403195 )
( 0.2025315675629416 0.0538399413274984 0.0570958486359672 0.0562040324646563 0.0284325844978063 0.1409479119982011 )
( 0.2014013314141326 0.0556803405227932 0.0629039652962861 0.0547553545457708 0.0260815677752437 0.1360392833846072 )
( 0.1991490147795739 0.0585612543165077 0.0700528536714785 0.0515617949249026 0.0197265718604904 0.1345659801174237 )
( 0.1983971601302913 0.0617084290958913 0.0758511079651191 0.0514206390411296 0.0125138031745132 0.1383475429091121 )
( 0.1977563353302221 0.0642791067749147 0.0793110182262255 0.0536647112081633 0.0066576691051986 0.1434664089970177 )
( 0.1965961323185507 0.0665156558972788 0.081589270801793 0.0567203408647276 0.0014109064344233 0.1489691745032639 )
( 0.1961188768778815 0.0686705336940804 0.0827986857353405 0.0599624713049031 -0.0032277124749749 0.155150093751265 )
( 0.196554078067106 0.0711212779626541 0.0837646206376188 0.0638982686470633 -0.0075327414867426 0.1618970383557031 )
( 0.1970357750591448 0.0735643724066961 0.0840059977087572 0.0680336810925684 -0.0108925770946475 0.1675969720408264 )
( 0.1979828157200455 0.0759244792448147 0.0842159561051395 0.071950465739828 -0.013576445406903 0.1725384053330489 )
( 0.1990395733540791 0.0780855545005454 0.0839846996356817 0.0755182598760689 -0.0158722670579517 0.1758232324171146 )
( 0.2002036557141346 0.0803467000409802 0.0832955170370929 0.0788318120856259 -0.0170971488649382 0.1773347033248536 )
( 0.2026842896118282 0.082502911144388 0.0830828864125062 0.081384082755362 -0.0171933894011492 0.1780718936043493 )
( 0.2049931320226921 0.0849185859107015 0.0822281748957266 0.0834690228412436 -0.0163471769182338 0.1777385495667209 )
( 0.206046526799363 0.0872474588766994 0.080425920835628 0.085322932969551 -0.014734095776953 0.1763650515429156 )
( 0.2079303819845813 0.0890595538428189 0.0790495618963019 0.0865525084624312 -0.012725929998351 0.1746194948591742 )
( 0.2107230313038464 0.090865128527905 0.0781556371554776 0.0875460375872017 -0.0104015385219059 0.1729579110359934 )
( 0.2131115480688654 0.0926549927623308 0.0769961208351822 0.0884374846377008 -0.0076505140086672 0.1714061622554872 )
( 0.2155885729299697 0.0945554578442307 0.0750493858763055 0.0894515118443614 -0.0046170921587854 0.170040998049798 )
( 0.1949894088159658 0.0541646880822966 0.0703040025995356 0.0669493901044314 0.0286832091969403 0.1158289278009544 )
( 0.1917020924042762 0.0550094294209121 0.0759967530490122 0.0664760515701758 0.0237576038686717 0.1111768629904864 )
( 0.1875750183169976 0.057625926485782 0.082488027662237 0.0635279143104866 0.0135945835699906 0.1140450512183031 )
( 0.1849398448971035 0.0604711142723328 0.0880086496992077 0.0642123704299535 0.0033034146126543 0.125272749594479 )
( 0.1835256858864616 0.0621912038304998 0.0918753245256021 0.0675764401154698 -0.0038302834897772 0.1365909018934147 )
( 0.1832370935623152 0.0640992186373879 0.0950102224987495 0.0713981453547859 -0.0096467393993953 0.1487303438314848 )
( 0.1834881168988257 0.0659306660464522 0.0976000416552074 0.0755591337838084 -0.0142285974470216 0.1599237873314071 )
( 0.1837939445653648 0.067522051099914 0.0999565801724412 0.0805217556893326 -0.0175139937892194 0.1690926818644469 )
( 0.1846501955329001 0.06924052441315 0.1015532722207977 0.0851614651990916 -0.0194932512695574 0.1757048179463287 )
( 0.1865880293141583 0.071274695916399 0.1029736386405894 0.0895652204502154 -0.0203471070383705 0.1803285541472284 )
( 0.1887889410762603 0.0732717457634489 0.1038739762996053 0.093440486328548 -0.0199946258339967 0.1821681608068645 )
( 0.1913043273189782 0.0750292171468941 0.1040021549346936 0.0967332345523879 -0.0188688014779951 0.181724489511247 )
( 0.1947467474684946 0.0765819348446155 0.1037984990896976 0.0989453971737176 -0.0170478029374899 0.1798431967622069 )
( 0.198462982098322 0.0785028221667696 0.1028067659163564 0.1001406273107761 -0.0146900693475402 0.1775565035758139 )
( 0.202139377120915 0.0805701477527543 0.1013713779501387 0.1011935138602913 -0.0122856745184103 0.1759352605921308 )
( 0.2058873208936216 0.0823132565282568 0.099741931204644 0.1016663314264389 -0.0100480503640679 0.1743724866387997 )
( 0.2097046493789641 0.084186136257673 0.0981100341104095 0.1019463482117809 -0.0078596866588608 0.1733117095149206 )
( 0.2136166895507775 0.0864795065973881 0.0964560548480245 0.102501877972092 -0.0056035222797154 0.1732001387021851 )
( 0.2179974782888262 0.089241752712181 0.0944786066878922 0.1030011380805337 -0.0032611069778826 0.1738935771153219 )
( 0.1866650341647966 0.0501973440347717 0.0771033654433364 0.0789911905057448 0.0262636574596732 0.0998617855072514 )
( 0.1826397571791277 0.04996558727563 0.0812132421152248 0.0794968610096262 0.0193691163422018 0.099832913802617 )
( 0.1785493660867278 0.0524784311812092 0.0866033127342944 0.0769856430273686 0.0075063406212459 0.1115613749516987 )
( 0.1759017246069563 0.0548474329686179 0.0918158471769937 0.0782074124837765 -0.0031882349771667 0.1316018156788764 )
( 0.1743742296940452 0.0555340717308923 0.0953669824996788 0.0824037194347084 -0.0093215671443562 0.1479421123806868 )
( 0.1737678492159701 0.0568134308621706 0.0984766136188099 0.0869468926041394 -0.0134428276574015 0.1622613094117034 )
( 0.1745598009345893 0.0580610799657458 0.1014389806742085 0.0919878019338254 -0.0161581677727055 0.1733904939046429 )
( 0.1760940561433288 0.058838763936447 0.1037583796236647 0.0974925769408283 -0.0174719809160782 0.1803741421667433 )
( 0.178304760737697 0.0600146966269236 0.1052351252878096 0.1020819936999987 -0.0177682882186305 0.1834476904673259 )
( 0.1816709318924592 0.061500009138125 0.1060419711882392 0.1057653562559457 -0.017764030530674 0.1835080933860327 )
( 0.1861479550491025 0.0628060006342047 0.1060072842987484 0.1085955087088766 -0.0169062078392983 0.1804459569099403 )
( 0.1913532033286416 0.0641020938822371 0.1051845698355933 0.110270033669111 -0.0155778601725186 0.1763057149432731 )
( 0.1977814466750824 0.0657128189631646 0.1041292253997167 0.1110240705539685 -0.0141459964131503 0.1730806306911849 )
( 0.2053705552213371 0.0680505200887073 0.1026484429422119 0.1115951996983583 -0.01262744796064 0.1712856705250836 )
( 0.2127096432357952 0.0704787973968421 0.1013590791377318 0.1119789792260904 -0.011297990005738 0.1712185206929927 )
( 0.2192512330186718 0.0729303340417815 0.1000728791932506 0.1118975659707147 -0.0100534215266514 0.1722169057810312 )
( 0.2252323951372501 0.0757156385004158 0.0985988346711116 0.1121044668202086 -0.008624152369618 0.1735476738360825 )
( 0.2318193361087455 0.0789777634776717 0.0973192366898756 0.1126079181625511 -0.0071134306265251 0.1758001835263493 )
( 0.2390102986774092 0.0829835577333618 0.0959566176765934 0.1127611184670792 -0.0054313014487084 0.1790329820841381 )
( 0.1794252917586232 0.0439636137263738 0.0781181301277876 0.0916906378464876 0.0231179718843894 0.0933595028260662 )
( 0.1747475649092296 0.0433914453073551 0.079874929697413 0.0912795879924164 0.0153838147257287 0.0999292624468677 )
( 0.1704923239708277 0.0458293610203451 0.0841893214698286 0.0889592727011673 0.0040138212290303 0.1199464650850966 )
( 0.1679316524142865 0.0481522369763762 0.0885534171863451 0.0910525528510363 -0.0047937840445008 0.1447587805396461 )
( 0.1664875622116322 0.0486314845046088 0.0911360700687966 0.0954600492594916 -0.0089197034545795 0.1617870849358905 )
( 0.1670081520671806 0.0494881015070621 0.0935844818577001 0.1002868722820819 -0.0114125611083466 0.1738176136301922 )
( 0.1688925614180901 0.0508029643764986 0.0954081884065523 0.1053540732704878 -0.0127469467020457 0.1808180544058646 )
( 0.1717286164815732 0.0517455932093729 0.0964755535967391 0.1101323925765777 -0.0132511468683756 0.182490645061782 )
( 0.1763185383626797 0.0526867336707215 0.0969672405301135 0.1141087604737719 -0.0135471920333516 0.1801628868413134 )
( 0.1830278518261346 0.0539483241834802 0.0969243234445854 0.1168287038391077 -0.0139369425160455 0.1758731346813925 )
( 0.1918111353469009 0.0556563310733675 0.0965053398013988 0.11830575267278 -0.0139841847161833 0.1712932590521616 )
( 0.2013862730637313 0.0580179766334765 0.0957424431032566 0.1190527300760267 -0.0134217114781399 0.1682684292536218 )
( 0.2118101418100693 0.0610319412225349 0.0949366116083604 0.1197567699637559 -0.0126340347220549 0.1674936931952977 )
( 0.2225229917109628 0.0651303815200395 0.0937295760304729 0.1205839562666137 -0.0116465078784176 0.1688077630349581 )
( 0.2316935305697007 0.0690942636124806 0.0922422538160605 0.1211314703419075 -0.0104865069129862 0.1708642150766493 )
( 0.2400016461574136 0.0730279353208466 0.0907036137309622 0.1213454183293161 -0.0093602281409949 0.1736545451282263 )
( 0.2476317012001418 0.0774369590450295 0.089040310525155 0.121881240136594 -0.0081032898356171 0.1764084789848468 )
( 0.2550593623692285 0.0819570770636918 0.087383326672857 0.1227241067864443 -0.0068595537182327 0.1792998259297316 )
( 0.2624124541564275 0.0872214879764411 0.085277901114007 0.123215373264331 -0.0054750211385828 0.1826667282196442 )
( 0.1716581983252484 0.037366869981244 0.0735056324498305 0.1023584842151866 0.0208831286128188 0.0929600971406148 )
( 0.1658370733318307 0.0373905141054351 0.0733355746408993 0.1011942450751502 0.0133525557350468 0.1051332664781179 )
( 0.1606881611931288 0.0402407025073853 0.0766579819157933 0.0988689574885428 0.0037667668932368 0.1309157844470315 )
( 0.159069333118552 0.0429436994040596 0.0803329041761436 0.1011448361740148 -0.0027430985656509 0.1561610200644709 )
( 0.159030706923251 0.0441248614793233 0.0821072622928754 0.1054795412130279 -0.0054522352876411 0.1699875457401615 )
( 0.1609924400530784 0.0454004036290192 0.0836544335029193 0.1101158007906105 -0.0072240954702746 0.1773474313413673 )
( 0.1650348169064692 0.0473830150764723 0.0844037306830213 0.114551091419544 -0.0086333361509122 0.1790535060965913 )
( 0.1706318230998096 0.0489404953882359 0.0842688048823778 0.1186672020931537 -0.0096823897014277 0.1758246082844262 )
( 0.1784084397393702 0.0506061025464325 0.0835260808424447 0.1225042174605067 -0.0105945627200693 0.1703213392012469 )
( 0.1888350441529124 0.0535868701034389 0.0828210847172363 0.1254322153300951 -0.011356530473029 0.16529696506553 )
( 0.2009054172161996 0.0571391995954338 0.082571128476937 0.1269199966418424 -0.0116502085835521 0.1626530942735405 )
( 0.2134021923815345 0.0612221203429252 0.081918715465462 0.1277077653759324 -0.0112771022997946 0.1623048741835676 )
( 0.2254073618776574 0.0661453428196878 0.0806866566712883 0.1290682881860503 -0.0106211137422089 0.1640284083698273 )
( 0.2359497455503975 0.0718469293188416 0.0789967542835674 0.130510381615281 -0.0096546789268736 0.1667412462622634 )
( 0.24468790898306 0.0775605626344314 0.0764280135241589 0.1314517678313309 -0.0084373483971146 0.1690184085804052 )
( 0.2517095116434007 0.0828036186666808 0.0734666908936113 0.1323035344474108 -0.0074025506774522 0.1713811320336602 )
( 0.2580656723738381 0.0880589015474297 0.0704586253159085 0.1332664572153968 -0.0065896407773237 0.1736281206094858 )
( 0.2633689329482123 0.0931691106046073 0.0671614380295904 0.134184732200119 -0.0060096777617258 0.1754046467107774 )
( 0.2679665266419249 0.0987064367336989 0.0632781170950926 0.1347807380642768 -0.0054073489222435 0.1773012161348221 )
( 0.1616910825546387 0.0320048800341019 0.0649283037720697 0.1108947734710675 0.0196592232911236 0.0958543299530571 )
( 0.1550149290162349 0.0330888066838278 0.0635710687080155 0.1092212909743071 0.013042370371096 0.1129077949180586 )
( 0.1509240875635522 0.0373074461231917 0.0665431924596725 0.1069489589158058 0.0053905646227302 0.1409833382283132 )
( 0.1510389275734338 0.0410934827399217 0.0693456973518301 0.1086787179773687 0.0005873923326199 0.1625308620855482 )
( 0.1531417094045614 0.0435143849991906 0.0702693089372655 0.1127320828442404 -0.0017820558945035 0.1715521614571808 )
( 0.1569086448024326 0.0458735025334128 0.0706545246883884 0.1176024028417044 -0.00364719178596 0.1735944389361892 )
( 0.1630445338052139 0.0485991655149371 0.0705270407917964 0.1221338183131403 -0.0055157879189452 0.1707787716201177 )
( 0.1715788838213905 0.051633214766739 0.0696994618306115 0.126473928808187 -0.0073015412525601 0.1652541854945295 )
( 0.1813876698597202 0.0552328580511368 0.0679618571836469 0.1305970768522128 -0.0084905490120831 0.1592055701076819 )
( 0.193311772442922 0.0597440791898269 0.0669996029218269 0.1338246920279031 -0.0092369574672623 0.1554228080960921 )
( 0.2061338947337107 0.0650304837472445 0.0661593809822747 0.1362567736613461 -0.0093449379307573 0.1542791242582347 )
( 0.2189555271346433 0.0711237833807899 0.0646594570537586 0.1381649715234894 -0.008867722995738 0.1554584377832163 )
( 0.2306713582152658 0.0775843946581689 0.0626826914423456 0.1400972248128367 -0.0082954297012102 0.1583109365719082 )
( 0.2400637915687192 0.0841452592710488 0.0599040873188964 0.1420119823218771 -0.0078407018733841 0.1610601726671071 )
( 0.2471139477071555 0.090786840028499 0.0561655630925769 0.143721471176735 -0.0073289751502218 0.1632332884712506 )
( 0.2515749861537296 0.0964568725800498 0.0518733215519583 0.1453880649484152 -0.0069807466013439 0.1650673307971736 )
( 0.2547128189960255 0.1017576305983805 0.0474814586776726 0.1467024314547628 -0.0069887456994618 0.1665699403679476 )
( 0.2572612248489782 0.1072720133087758 0.042722288768851 0.1478120930041832 -0.0072531673181423 0.1676872311798228 )
( 0.2592408058130966 0.1128997103603437 0.0376603206928752 0.1485071758245188 -0.0076724723230233 0.1684024503361439 )
( 0.1509232634333959 0.0285315116662084 0.0545307991844535 0.117710101567965 0.0194194642019476 0.1007969061972529 )
( 0.1443147691376479 0.0311844239955226 0.0527710707201117 0.1154340472145132 0.0139776254305253 0.1200244854965212 )
( 0.1421856550571952 0.0369298879801489 0.0556612510628858 0.1131376838729563 0.0075516622749346 0.1465541335952593 )
( 0.1436047093376929 0.0418790278131237 0.0572136041898203 0.1149235810618743 0.0034161240195701 0.1631987593134691 )
( 0.1472067864949931 0.0457950472418422 0.0569350998308981 0.1192261936447653 0.0008194230752054 0.1672157881221325 )
( 0.1537139133403227 0.0497450036779985 0.0564534159268662 0.1247141183373303 -0.0017802541627595 0.1654338706648999 )
( 0.1611009203626721 0.0540778381757097 0.0550262614186512 0.1303441911227971 -0.0039368885326441 0.1599052526901045 )
( 0.1708955309716997 0.0588363801603078 0.0533827401927832 0.1353708052344661 -0.0057583881903208 0.1534598702554125 )
( 0.182751102977275 0.064187175972815 0.0516154032977346 0.1398581855433114 -0.0069373670926085 0.1481441972577874 )
( 0.1948603230456226 0.0701988080357167 0.0502300794960938 0.1436608357164076 -0.0073807794450725 0.1453220955879367 )
( 0.2074407036747235 0.0769802340834692 0.0484241159869444 0.147294074980479 -0.0074443914562795 0.1453479010133983 )
( 0.2195841586936777 0.0840351070211345 0.0463624703795528 0.1504661621841847 -0.0074855791140956 0.1481205176340497 )
( 0.2292915343108962 0.0911217130631488 0.0435772015359218 0.1530737954205288 -0.0075625250865483 0.1513572060759914 )
( 0.2359187547046087 0.0982743940869244 0.0394722240098377 0.1558197010503268 -0.0079439330558938 0.1539347894285659 )
( 0.23984769359795 0.1047570546582236 0.0349935796962217 0.1582334742753504 -0.0083547525212319 0.1561843347703322 )
( 0.2418494056481095 0.1105972694591681 0.0301045913126173 0.1605748624819259 -0.0089736296203973 0.15779534687249 )
( 0.2427473460527328 0.1164189156068768 0.0249464752980523 0.1625826055673783 -0.0098791952434131 0.1590620626515402 )
( 0.2435968442921783 0.1224675795516168 0.0198033183435762 0.1643034797450795 -0.0108765522894378 0.1602252933926072 )
( 0.2444783357514944 0.1286007928964958 0.014880230298617 0.1653914090817743 -0.0120178860850984 0.1607297373448654 )
( 0.1397133242346189 0.027008258095572 0.0434093241566021 0.1230444233859929 0.0198366047930283 0.1048058931234761 )
( 0.1336940848716104 0.0312919961568013 0.0414209763915493 0.1203803222545322 0.0150595259881378 0.1235122986123052 )
( 0.1332476582230801 0.038440533222665 0.043863093686022 0.1183840514162572 0.0092880334991354 0.1469724181969332 )
( 0.1361899092344268 0.0448616043907873 0.0445690898400544 0.1211831259486843 0.005273298236357 0.1591620837012282 )
( 0.1413551212550233 0.0505809931849208 0.0432229183700538 0.1264805475097517 0.002085724869736 0.1596580676568082 )
( 0.1499141025984884 0.0560819950698633 0.0419737377225623 0.132463045072948 -0.001076268624963 0.1554004783389032 )
( 0.1591157569603138 0.0620597141822251 0.0398764165179247 0.1389137717157256 -0.003494559458056 0.1485770695657435 )
( 0.1701293005069325 0.0681070828079066 0.0381500025913189 0.1448378054010304 -0.005227415495418 0.1423931515301547 )
( 0.1829503146975342 0.074680473749699 0.0366660384476904 0.1503563251561922 -0.0062669145951089 0.1384158083509407 )
( 0.194256177491604 0.0821629262384591 0.0341355464718835 0.1556240248052974 -0.0067712625272031 0.1361983110160337 )
( 0.2054656244987359 0.0895302653347692 0.0317605085478437 0.1601435070118753 -0.0071101743657844 0.1372800887256682 )
( 0.2153928280916637 0.0966404990550533 0.0292763377588201 0.1640483609083624 -0.0078066422833908 0.1411746101467247 )
( 0.221645725555746 0.1040809834484053 0.0253792236492433 0.1677842276002462 -0.0088714684707416 0.1446233436064479 )
( 0.225464535731935 0.1116099252346418 0.0205162319483619 0.1717456363509694 -0.0102585443882606 0.1477091427534899 )
( 0.227233110585123 0.118201347587681 0.0156695278720104 0.1750178447817607 -0.0115068708859796 0.1504996990196914 )
( 0.2278246036380123 0.1245415252352639 0.0108201001377919 0.1783617449012096 -0.0128507411091071 0.152400331872667 )
( 0.2280490821000192 0.1314456848331061 0.005863665409377 0.1817916629877578 -0.0143862584782439 0.1538467742168818 )
( 0.2289131168429562 0.1386439047017938 0.0014317570995629 0.1846767096002183 -0.0158238954379898 0.1553113263785912 )
( 0.2310982283386455 0.1465031841248708 -0.0023579803910484 0.186933985507654 -0.0170443072143001 0.1562792747907867 )
( 0.1290786295273749 0.0271486746364034 0.0333199713224419 0.1277968552923789 0.0197231156789193 0.1090777565592639 )
( 0.1236946662276464 0.0334892430916001 0.0313283532304256 0.1251819365653476 0.0151344553720727 0.1267727965615446 )
( 0.1247048657520278 0.0424262135688096 0.0324719758115043 0.1239283592014297 0.009793393718401 0.1460117479647202 )
( 0.1298622945940424 0.0501887386873985 0.0318238490208324 0.1280312377882474 0.0055210668454357 0.1535772449534704 )
( 0.1376167205230769 0.0573294137137762 0.03017226728283 0.1343869760940466 0.0017996822191389 0.1515486645717487 )
( 0.1475104370593208 0.064329722278524 0.0281848486286903 0.1414588358745789 -0.0013528970078572 0.145185810090156 )
( 0.1576979203757162 0.0712756121770787 0.0256071747237888 0.1488690420618965 -0.0037200496406099 0.1374477821972688 )
( 0.1689299723300124 0.0781492748586244 0.0235098671214296 0.1562384028941605 -0.0055732400745336 0.1316145755159351 )
( 0.1801493813283416 0.0853162446000733 0.0216277545701369 0.1631867644125736 -0.0066987265367833 0.1287471022365581 )
( 0.1899144672123979 0.0926550553659655 0.0191541905411896 0.1691268812135802 -0.007450951288205 0.1281745324921866 )
( 0.199085514815548 0.1000513911126373 0.0167838004186073 0.1743517128362923 -0.0084689097181625 0.1308632013702464 )
( 0.2062137429009554 0.1078044596889704 0.0137784438486585 0.1792451841675467 -0.0099938247207333 0.1355112425510783 )
( 0.2099356985032503 0.1157497578511396 0.0092321295517847 0.184363597432676 -0.0119158843737982 0.139923752391634 )
( 0.2121505748949031 0.1234575557113459 0.0046274127319447 0.1895235573952768 -0.0138969466029161 0.1439810240553212 )
( 0.2132004024770647 0.1308900587531015 0.0001043259978655 0.194539286309028 -0.0158028467531543 0.1469639972983839 )
( 0.2139167649698776 0.138724593891466 -0.0043101818091491 0.1999131378221367 -0.0176520579768339 0.1492228073014731 )
( 0.2152284397358937 0.1475832690678524 -0.0083497087021061 0.2054112863670233 -0.0193329800975948 0.1510967514064163 )
( 0.2181719262560081 0.1571511929524847 -0.0116953354097442 0.2102649719379415 -0.0207538132721448 0.1525854551950799 )
( 0.224078738683017 0.1678185362833366 -0.0141628054218916 0.2141468988629825 -0.0217253312239011 0.1535418428610445 )
( 0.1192593202804893 0.029126029828617 0.0245902103492893 0.1320691205489511 0.0189614290286095 0.1129066715463244 )
( 0.1152018814771243 0.0373300307233224 0.0224763733401893 0.1301471534723444 0.0142679217246918 0.1288090523571208 )
( 0.1178194452375804 0.0478397511877859 0.0218286573765689 0.1306822173412237 0.0088501589796092 0.1440971054759454 )
( 0.1246696043440559 0.0565593402991249 0.019658242730808 0.135608483654999 0.0045118787676258 0.147186894815564 )
( 0.1340130195293319 0.0648674365989682 0.0173946155920394 0.1428997958643026 0.0007651128597074 0.1422520768343428 )
( 0.1445163515968395 0.0729215701067599 0.0147139648939974 0.1513106201557521 -0.0023881864567104 0.1345045027343807 )
( 0.1549325582862057 0.0800398726839555 0.0119171177668352 0.1598544301492656 -0.0047563741754757 0.1266384075268093 )
( 0.1655471709224426 0.0870978582333761 0.0098005800565774 0.1685663520863936 -0.006857296356801 0.1216710806202494 )
( 0.1752107260133362 0.0943093057402241 0.0080843457460079 0.1763946392311647 -0.0082318469029105 0.1204991670736206 )
( 0.183307646886217 0.1011982871034806 0.0064032241114712 0.1829721375695528 -0.0093623590568164 0.1221400434933888 )
( 0.1899864052489002 0.1088009245763717 0.0041598699548428 0.1896537549602376 -0.0111992054779735 0.1263299795292879 )
( 0.1949115684785217 0.1172963529558896 0.0008203028095554 0.19635288366583 -0.0135367877795647 0.1319227374128021 )
( 0.1976395140426205 0.1257949090733658 -0.0034987614003091 0.2028642002963435 -0.0158945171496494 0.1371010399339304 )
( 0.1995052767996205 0.1345402634865775 -0.0075944951199734 0.2096934727016258 -0.0181769743882389 0.1417096139052967 )
( 0.2010471421583765 0.1439084544057384 -0.0115327364936377 0.2175122768138152 -0.0204785873641279 0.1450233226670292 )
( 0.203182836601129 0.1542575863074525 -0.0152691937564201 0.2258253342781911 -0.0225371904756599 0.14742740109086 )
( 0.207089840997484 0.1657836530286382 -0.018350831772017 0.2339825077911307 -0.024152005218222 0.1493738281824272 )
( 0.2138983395963232 0.1785120581504994 -0.020561891041839 0.2412923499859591 -0.0251534008178923 0.1507985616576689 )
( 0.2252012382881053 0.1934151769181404 -0.0219717128494784 0.2476168156176533 -0.0254945811593824 0.151594897400973 )
( 0.1101752046923259 0.0327249840557012 0.0158965352852135 0.1365377787130761 0.0175855846047856 0.1162036763804646 )
( 0.108082946623685 0.0421200351270077 0.0130021649723705 0.1359030872739016 0.0124838412684703 0.1298040927947887 )
( 0.11318058562937 0.0538962943157379 0.0112756884654957 0.1384385187441896 0.0068593072035395 0.1406478465340252 )
( 0.1210878846698158 0.0635499527321704 0.0081437122702901 0.1445120240644769 0.0026408427919264 0.1399546416629041 )
( 0.130911630756026 0.0725272338163412 0.0051561207954068 0.153093609243347 -0.001107215493548 0.1328432477402323 )
( 0.1412580185469368 0.0805812598558339 0.0023397388918802 0.1621625485637328 -0.0042477975073871 0.1242389662232804 )
( 0.1517402448361212 0.0874754391562703 0.0004030425363609 0.1712886791803053 -0.006689012274989 0.1173485387288657 )
( 0.1610835613402929 0.0944097140640682 -0.0011738552222399 0.1809149656079584 -0.0087781793508215 0.1139153500342445 )
( 0.1687226147122717 0.100925683003728 -0.002435344110996 0.189305641485301 -0.0103031957431014 0.1144735090249854 )
( 0.1750478625061267 0.1080230588956766 -0.0039318109521958 0.1975598761863941 -0.012360002842078 0.1176960113045301 )
( 0.1797210683416178 0.1163033175370368 -0.0063537691036884 0.2063084201787578 -0.0149141416217533 0.1232528533921587 )
( 0.1832330310551138 0.1254538057465024 -0.009675187130851 0.2152168453095605 -0.0176274320979561 0.1296935701103425 )
( 0.1859900380697925 0.1354317255811339 -0.0133678476042456 0.2241676956315788 -0.0204805789344803 0.1352683403493428 )
( 0.1889208344884321 0.1462744760856289 -0.0167766986048285 0.2335528398644409 -0.0229126546759538 0.1404210440905172 )
( 0.1919337167001344 0.1582542866605151 -0.0202098970028555 0.2446184666477611 -0.0251564530110694 0.1442370188892113 )
( 0.1962455693922916 0.1713574195098928 -0.023147463710785 0.2562774239260219 -0.0270068468658454 0.1467558068623472 )
( 0.2036742059329447 0.1860686822073375 -0.0252569455839831 0.2675288827946852 -0.028271554291758 0.1483841214891195 )
( 0.2160242377077142 0.2034086562388265 -0.0265265456759662 0.2779648110256644 -0.0288057744264011 0.1494547434348024 )
( 0.2344213636111903 0.2239866804865072 -0.0272224692958998 0.2873224756535374 -0.0287114634787047 0.1501107004182979 )
( 0.1017617297647187 0.0369573794840744 0.0070480458001923 0.1424480390101827 0.0151003912463238 0.119746692611943 )
( 0.1018518663773316 0.0476359473132043 0.0031993361516239 0.1428577349704853 0.0098373882830301 0.1302301187667387 )
( 0.1097262893457889 0.0601103933798359 0.0008215968407352 0.1464902437219324 0.0042643468345618 0.1362009496624112 )
( 0.1193534703363357 0.0704161603880485 -0.0024532192125286 0.1540261899506073 2.39108925923314e-05 0.1324337496174855 )
( 0.1299698126132035 0.0791930709934279 -0.0051523945627765 0.1633491426410297 -0.0037168432588128 0.1242085727080705 )
( 0.1392683028393051 0.0864247525208244 -0.0074185702621681 0.1729207695143123 -0.006710913188228 0.1156730344992836 )
( 0.1479861073007403 0.0928667260782687 -0.0089697147603192 0.1825322010616451 -0.0089163355703472 0.110009254220125 )
( 0.1552660247868365 0.099427079472135 -0.0102885391674309 0.1930945282154241 -0.0110792116197001 0.1081806391820432 )
( 0.1605845948917607 0.1056736922720866 -0.0115051867907925 0.2032371721942812 -0.0131673045170452 0.1100661968894114 )
( 0.1649580206451688 0.1130488902546473 -0.0129072998630841 0.2129870993359919 -0.0158164450763524 0.1145346857381691 )
( 0.1688676346622728 0.1223905782074727 -0.0151937150410981 0.2240324786736298 -0.0189484435362911 0.1215604086429641 )
( 0.1724399206394932 0.1329876655409276 -0.0180143019864449 0.2357194810243993 -0.0219342763993379 0.128966412236611 )
( 0.1758004949226173 0.1451729189232405 -0.0210484781799056 0.2478844724543896 -0.0249388718566239 0.1350590134399147 )
( 0.1801072533550162 0.1589082292610144 -0.0238856911858877 0.2614664217297779 -0.0273916327465723 0.1402842360020663 )
( 0.1852922837473128 0.1735294218177255 -0.0265257222923288 0.276222015022935 -0.0293936938538283 0.1438764769458496 )
( 0.1929769315076313 0.1898844755356911 -0.0286247696764277 0.2913006524858407 -0.0309516381800919 0.1461623966237837 )
( 0.2053676701861984 0.2095505274934922 -0.0301292215968933 0.3069356537884141 -0.0319859450665258 0.1477202663870641 )