/*--------------------------------*- C++ -*----------------------------------*\
| =========                 |                                                 |
| \\      /  F ield         | OpenFOAM: The Open Source CFD Toolbox           |
|  \\    /   O peration     | Version:  2112                                  |
|   \\  /    A nd           | Website:  www.openfoam.com                      |
|    \\/     M anipulation  |                                                 |
\*---------------------------------------------------------------------------*/
FoamFile
{
    version     2.0;
    format      ascii;
    arch        "LSB;label=32;scalar=64";
    class       volVectorField;
    location    "0.0001";
    object      U_LES;
}
// * * * * * * * * * * * * * * * * * * * * * * * * * * * * * * * * * * * * * // 
 
dimensions      [0 1 -1 0 0 0 0];
 
internalField   nonuniform List<vector> 
13597
(
( 17.759979666718763 1.8811251242687064 0.1086097844977354 )
( 17.765546085175803 1.9269488805651585 0.1133389343387527 )
( 17.78745845944236 2.0208054828387314 0.119443275186541 )
( 17.822077629286817 2.142263376976451 0.1252268626758123 )
( 17.85207129336774 2.247168619958074 0.1303950752898277 )
( 17.871745765003652 2.333997188716133 0.135538422900299 )
( 17.895218212131297 2.419157414819677 0.1399653113503422 )
( 17.922398176491743 2.511409691384044 0.1447030383002346 )
( 17.951205098986623 2.6046066624778343 0.1478094672643004 )
( 17.982392085531465 2.696807066995151 0.1503810521580118 )
( 18.01444640519834 2.79814046869822 0.1534563591177821 )
( 18.051299104401533 2.8990484676271477 0.1542804108504035 )
( 18.091579098223495 2.9982679095007017 0.1542028852181192 )
( 18.130990095996548 3.102847310171136 0.154094517593378 )
( 18.169495290823487 3.2092823691959698 0.1542014756779043 )
( 18.210695462228475 3.313844927965801 0.1554273791331157 )
( 18.25580909716463 3.4135205966115767 0.1563606641224538 )
( 18.301250487137363 3.512743083929231 0.1557395234132198 )
( 18.34758591763449 3.616070314290615 0.1536670316592049 )
( 17.61840054400201 1.9300062319699756 0.1497518762110691 )
( 17.604680389280396 1.9900278168061185 0.160761567067561 )
( 17.60589164327058 2.1127618484320414 0.1760337533849961 )
( 17.612665438448634 2.25283135797702 0.1915633268300387 )
( 17.613303140760788 2.3629780140174064 0.2049425197578674 )
( 17.61067510336046 2.4658894268811817 0.2175494334454304 )
( 17.61320917490721 2.5688775101857746 0.2277217468381801 )
( 17.61689755900489 2.677018392345724 0.2376834503447895 )
( 17.623071271940837 2.787540562626392 0.2452194096273788 )
( 17.630441344468867 2.897465542415888 0.2507115419452856 )
( 17.637288669408573 3.018056793365998 0.255253104735195 )
( 17.643425313261957 3.1455660435925634 0.2572610358904728 )
( 17.649327411767604 3.2732624413301097 0.2572722276228814 )
( 17.65786696591158 3.404239043349472 0.2547691294247521 )
( 17.666181891805262 3.53258168298077 0.2505894786712503 )
( 17.67687733747311 3.653036369320157 0.245975088216029 )
( 17.688835477266803 3.763328524741687 0.240779857999037 )
( 17.69943799513468 3.875802551434134 0.2340261912076505 )
( 17.71493605688822 3.98750402267744 0.2256165646532432 )
( 17.463724960888037 1.972355729442095 0.1864453005720667 )
( 17.4247616746406 2.044272576490348 0.2039674721783423 )
( 17.400171025815425 2.185991192417587 0.2265044200845807 )
( 17.376678006549202 2.338852582688491 0.2484672879749705 )
( 17.347520897251094 2.455660537229481 0.2649595231027796 )
( 17.32390957088399 2.5712890927663303 0.2780872749842272 )
( 17.305229747845516 2.690092134103917 0.2872926022772926 )
( 17.280022277524754 2.810811515485648 0.2942060966963531 )
( 17.257880722046178 2.936592664667512 0.2975804026702017 )
( 17.23958065758934 3.071248313685987 0.2977882236915642 )
( 17.218446146231738 3.211858259761545 0.2952110675308367 )
( 17.19603252634729 3.361490565847378 0.2892080687658773 )
( 17.174591262928654 3.51468840271725 0.2798474050212621 )
( 17.156026914685413 3.6608451431014064 0.2677533518296924 )
( 17.14004798983242 3.794418278212296 0.2550990869390403 )
( 17.12675505841358 3.912623696665864 0.242390441158296 )
( 17.111313984714354 4.018775539178926 0.2294076827885887 )
( 17.094683234885636 4.125620135599526 0.2153197247907255 )
( 17.086822645849463 4.235624574184289 0.2005378743987609 )
( 17.293938971635743 2.0071838342415576 0.2185163235954409 )
( 17.230871681598902 2.088629041908748 0.2398532690360464 )
( 17.183507282728133 2.239487100059251 0.2642051417243162 )
( 17.13297472414209 2.400222827284644 0.2852008597899372 )
( 17.075126507823402 2.526021826409343 0.2982217937379745 )
( 17.024745398792252 2.6497345911320864 0.3053388348853059 )
( 16.974739722385582 2.7814683350804774 0.307767305395644 )
( 16.92058242571215 2.916168084193809 0.3061528386246844 )
( 16.873980836030523 3.055606264548826 0.3003264234228532 )
( 16.831361303165185 3.2037675218570287 0.2905351999511232 )
( 16.78383898829649 3.3601173771627524 0.2763640881315741 )
( 16.741153375145895 3.521948756515123 0.2589111181619475 )
( 16.702723982609214 3.682430508297494 0.2397530008005427 )
( 16.662641124289006 3.83563175265141 0.2192247945230938 )
( 16.623084474267785 3.967174333710023 0.20006784453614 )
( 16.58614785814281 4.079250974792098 0.1828439408953711 )
( 16.549622974708985 4.181078278818273 0.1667359305523799 )
( 16.51056719631226 4.284118035666783 0.1503880246869975 )
( 16.475917293132 4.397459837607718 0.1330159634690745 )
( 17.121717767853493 2.031664843280577 0.2445950787710429 )
( 17.04267018995214 2.122483801384344 0.2642583291550058 )
( 16.97199628623162 2.2825512510459074 0.2855256248886437 )
( 16.89324234679378 2.446273907078602 0.2993270162562008 )
( 16.811428209148932 2.5771648384931503 0.3032321337963433 )
( 16.736202348504793 2.7071082720130826 0.3016470652334937 )
( 16.658174577882274 2.847444386318809 0.29453103200731 )
( 16.580834536274825 2.9910631822060054 0.2826585177049005 )
( 16.51134282446185 3.13612750832751 0.2672435740635587 )
( 16.443333243987443 3.290150396699341 0.2483737107271423 )
( 16.372932921611586 3.45789811251493 0.225965449118951 )
( 16.30635414412126 3.628752221949605 0.2024944916530069 )
( 16.24205467470462 3.7936968638240978 0.1788286289774575 )
( 16.17606803217408 3.947789084021583 0.1553221300787256 )
( 16.109364728478454 4.073902415873519 0.1345536581475238 )
( 16.04455768022363 4.1862965632771365 0.1160509722069037 )
( 15.983185241692194 4.29356886219064 0.0995308502637979 )
( 15.922263619112636 4.400942422368809 0.0838010881039072 )
( 15.862311801384584 4.52084301013575 0.0675874060355322 )
( 16.955700704892923 2.0437882360995667 0.2608826185855982 )
( 16.861618892116653 2.14343493864075 0.2759316709623728 )
( 16.765080941126588 2.3148345729143203 0.2896847980193853 )
( 16.6637908688696 2.4793644113979627 0.2937227667418289 )
( 16.564012156085262 2.6127158883166466 0.2879606453916621 )
( 16.469452435740987 2.748201062018226 0.2773192802292892 )
( 16.374598122643704 2.8894212640720167 0.2617371757112217 )
( 16.276655238085695 3.0345103650392096 0.2420024610310066 )
( 16.177516830663606 3.18452433270325 0.2195531665817184 )
( 16.080742070434408 3.3503346685676525 0.1947620338288047 )
( 15.98803340353734 3.5234739649029856 0.1695723339988248 )
( 15.89333059342132 3.695481189727632 0.1444846183805685 )
( 15.801432610631654 3.863591880942115 0.1198103891351183 )
( 15.712313775745052 4.0157714988015 0.0973929049503239 )
( 15.621688596512666 4.142074746679469 0.0779429992710706 )
( 15.537446519115086 4.253161739414925 0.0615453488924955 )
( 15.455329912391782 4.3604859563996365 0.0470608720127353 )
( 15.37303807552403 4.46925784864712 0.0334163849707333 )
( 15.292173014941914 4.592230199311519 0.0205377629501995 )
( 16.791538488558608 2.048187083522634 0.2674725627991676 )
( 16.6833620241942 2.156919521828629 0.2762744341376839 )
( 16.568553469485202 2.3345923103012747 0.2802500760370067 )
( 16.45026064267273 2.496267093091792 0.273539568960545 )
( 16.335336755550156 2.62927384586554 0.2596482759369781 )
( 16.220656447259 2.7658343238458376 0.2414315364825489 )
( 16.106137682956582 2.9089030113606804 0.2200687295255345 )
( 15.988544739868049 3.0569566813343325 0.1958843180501244 )
( 15.86393529481474 3.209262647838252 0.1699054406159548 )
( 15.746346816931082 3.3779574169076665 0.1443351004131919 )
( 15.628842463117884 3.5549818449504444 0.1186882953780601 )
( 15.50609335430928 3.731443421114821 0.0935611313994463 )
( 15.390755468805184 3.8971828561251898 0.0713242349303541 )
( 15.279603694005113 4.044959935085965 0.0515627173051388 )
( 15.168013498706888 4.174728506695885 0.034383769086962 )
( 15.062530092858838 4.283762087328284 0.020906765307213 )
( 14.961231908697874 4.388720486428318 0.0092870963666467 )
( 14.858981513593882 4.502048073773525 -0.0016030128174143 )
( 14.758651993887971 4.628565220704398 -0.0115446860043065 )
( 16.639836965211735 2.045794661530472 0.2654349002861944 )
( 16.51885434277565 2.157986060719591 0.2660452766417787 )
( 16.389084003228692 2.3364082249753637 0.2602415464056889 )
( 16.25479387706589 2.4958764004838176 0.2448025639176016 )
( 16.12291614992947 2.629288030667554 0.2244003789328987 )
( 15.9897737760767 2.76748546046835 0.2020113611628779 )
( 15.853108515364337 2.9138452512466952 0.177498379028425 )
( 15.716348683870285 3.060579365867941 0.1514490803990136 )
( 15.570340574152915 3.212498340368758 0.1247726016590094 )
( 15.430199207617342 3.384974475738967 0.0999132608205034 )
( 15.286349143058622 3.565248310201498 0.0754539487586549 )
( 15.141313130198004 3.7450087575429767 0.0523299104921958 )
( 15.004213019603077 3.910326439865967 0.0327169216372807 )
( 14.86795889463027 4.051711557887017 0.0156308991193917 )
( 14.740885493923322 4.17461437706455 0.0020273812766989 )
( 14.616734490739764 4.284119618324936 -0.0090815469851277 )
( 14.496110330962107 4.393441815976117 -0.0186962032138843 )
( 14.376676984803217 4.513444186080135 -0.026866113078943 )
( 14.25948656209566 4.645570433749684 -0.034061837399506 )
( 16.50020046260546 2.0316855516894936 0.2541380111613031 )
( 16.36656236634131 2.142096041612008 0.2459612814801173 )
( 16.22131995383868 2.3207879735422616 0.2323138096393824 )
( 16.073589507588412 2.478939293457414 0.2121649725462041 )
( 15.923276092497924 2.6158149061353893 0.1880599670886255 )
( 15.775107780444484 2.7525701978009565 0.1634989775092915 )
( 15.621847920231128 2.895335963760003 0.1377430686719948 )
( 15.46674413645946 3.0461503370445198 0.1125069832273722 )
( 15.30389201559742 3.2029775697892573 0.0878752377165765 )
( 15.132078503626062 3.3749289700530003 0.0624682339390704 )
( 14.96304623866008 3.5563945561205443 0.0398551505327456 )
( 14.800971960896304 3.734590729437934 0.0202736566729363 )
( 14.63871684921322 3.899539549204075 0.0023116534431154 )
( 14.482067709330147 4.04038710771114 -0.0122985060941773 )
( 14.340855935784722 4.159274164239919 -0.0229240577970258 )
( 14.199251360343968 4.271858549905304 -0.0321095540679512 )
( 14.059782878400204 4.3847685608149165 -0.0395605431825066 )
( 13.922528025808107 4.508268092958684 -0.0450306090004159 )
( 13.78629393074401 4.646743347451251 -0.0489209290758138 )
( 16.368337646214105 2.013559820531087 0.2370853822994903 )
( 16.224565708227242 2.1284250873508075 0.2215738612469012 )
( 16.065699929051362 2.304314677774201 0.202290722875721 )
( 15.90393275837242 2.4546558857309173 0.1792875520991534 )
( 15.740560047971764 2.592541548420322 0.1541516100246686 )
( 15.57750996018992 2.724751043597282 0.128759388101841 )
( 15.40375116861414 2.860952277404357 0.1025958082831868 )
( 15.22293718616434 3.012920405667828 0.0773489659522182 )
( 15.042273589755482 3.170700111579566 0.0546253658399534 )
( 14.85078876676764 3.3423976731034526 0.0319071774861005 )
( 14.66179643122762 3.528977652979411 0.0112876903706834 )
( 14.481181922663389 3.710268137661114 -0.0061484078847551 )
( 14.300402130205764 3.871693516209079 -0.0214861028020845 )
( 14.1297651036713 4.012936546959224 -0.0331186124176995 )
( 13.969053379575154 4.133614069021269 -0.0417854495046947 )
( 13.807785891187669 4.246558722420381 -0.0486055503283695 )
( 13.646888881319915 4.36120296236248 -0.0533335671711686 )
( 13.490476087694915 4.487605361823576 -0.0566402094557999 )
( 13.337717012209264 4.6336589316936045 -0.0589207926287529 )
( 16.252530270809185 1.9927382591162237 0.2170171757547311 )
( 16.101321968358924 2.1109127877191294 0.1970903637764407 )
( 15.92256576481564 2.282479270629576 0.1732814733023758 )
( 15.749153513286965 2.4229097010807 0.1482759768356465 )
( 15.573675241089813 2.555701997869104 0.1229919631808981 )
( 15.390342778904902 2.685514147373725 0.0972384013871575 )
( 15.196931433612685 2.816327546074365 0.071239106897494 )
( 14.99875483086025 2.962191577980783 0.0470013817188634 )
( 14.79795667861601 3.1237171260283105 0.0260927633674273 )
( 14.591963031601036 3.2980378277209685 0.0067386385657936 )
( 14.384452457101098 3.48515746620414 -0.0115582319271442 )
( 14.17919529039429 3.672991060082074 -0.0272675507174496 )
( 13.986259039055884 3.832829712163135 -0.0394238715648052 )
( 13.802195083946811 3.974337261187252 -0.0482462699187566 )
( 13.618170846064356 4.098661094438397 -0.0550379363605115 )
( 13.434334595489338 4.211925839795374 -0.0600067221272629 )
( 13.254039383125534 4.329775685826139 -0.0635975177633251 )
( 13.083272682873236 4.461822796494015 -0.0660565693723855 )
( 12.915044993416114 4.617409809926161 -0.0672588728936441 )
( 16.146129365511882 1.9648933742305688 0.1934554749651803 )
( 15.982682269361558 2.083967179669415 0.170614181077432 )
( 15.787211999400228 2.252782337161485 0.1449708998967978 )
( 15.603265985109775 2.3837447942525816 0.1194216319081728 )
( 15.412566136164276 2.5078998158036296 0.0939143416006665 )
( 15.210648391206316 2.6356774423703286 0.0681099900932473 )
( 15.006551026613447 2.769850205995672 0.0441935827081198 )
( 14.793105999317348 2.915763992747079 0.0225014285645929 )
( 14.573156488635457 3.077605008948032 0.0034411661410836 )
( 14.349607486762483 3.251239573560522 -0.0146557165138848 )
( 14.124287658878236 3.43580546923774 -0.0303529469354639 )
( 13.899478394541887 3.620416681764513 -0.043185658035555 )
( 13.68696489701703 3.7849290253600736 -0.0533187394245845 )
( 13.483022113458144 3.93386558582092 -0.0603286258430689 )
( 13.27746635698266 4.059914086829509 -0.0656200378829637 )
( 13.077455528739764 4.171850152188847 -0.0695514914104207 )
( 12.885670640482624 4.29310205824829 -0.0724567174582882 )
( 12.701837554853688 4.437084003847018 -0.0737274227552386 )
( 12.519055316245549 4.605039366784971 -0.0726515673909609 )
( 16.044160178769285 1.9272100598114528 0.1684283857432538 )
( 15.870248450271198 2.0462848896289048 0.1435073577671215 )
( 15.66558708742786 2.212306736414977 0.1179412027144742 )
( 15.467161380767596 2.3406873384940314 0.0927464677664329 )
( 15.263422919554126 2.4637923172925413 0.0681255180718385 )
( 15.047832841113214 2.58984644741464 0.0438670826052923 )
( 14.829317326734946 2.7226040989153697 0.0222133968048986 )
( 14.597319392139134 2.8648138298666472 0.0021686072570972 )
( 14.358406385793302 3.0220535876259857 -0.0159638618562704 )
( 14.120530891006004 3.1985443178916086 -0.0323181587983828 )
( 13.876720431812451 3.3894917411278938 -0.0458906689283614 )
( 13.635734786887143 3.571878987714877 -0.0563783199065404 )
( 13.400670107131326 3.73771799467342 -0.064399591826097 )
( 13.171075170064976 3.888478262460176 -0.0701044607775168 )
( 12.952865094072743 4.010680268267348 -0.0747415199201255 )
( 12.746342149449612 4.126038406764878 -0.0775726137617158 )
( 12.542765413762163 4.256712480004424 -0.0786963090412611 )
( 12.341327539516843 4.410897658133083 -0.0776477203218549 )
( 12.135684293874892 4.593751999622582 -0.0734440829627584 )
( 15.95046682070737 1.8810620843551404 0.1432032397003462 )
( 15.771990443376874 2.000852532459469 0.1181395926721065 )
( 15.554065077036205 2.164625376490688 0.0928620613733132 )
( 15.341507804753142 2.2908346657688683 0.0688002622123432 )
( 15.12369439623688 2.413055203914693 0.0454852265121155 )
( 14.89909469146897 2.534375465997368 0.0233454576136874 )
( 14.665557626276229 2.663316721577184 0.003215771437306 )
( 14.422330400319773 2.803144817222048 -0.0151978340791916 )
( 14.165852653070036 2.958054982715152 -0.0320685932016526 )
( 13.90720564856677 3.13701313884511 -0.0467029815005673 )
( 13.6445253103162 3.332014930272069 -0.0585934671289717 )
( 13.382109129893454 3.5210008509841804 -0.0675195857170903 )
( 13.128465990807284 3.690974166749748 -0.0733181156162178 )
( 12.88544201068806 3.835191264130892 -0.0779716963411752 )
( 12.656030014151629 3.9564441402790624 -0.0818906370277823 )
( 12.434307764173214 4.082831893702102 -0.0832026470847682 )
( 12.21490097515412 4.229240279669123 -0.0821194377449225 )
( 11.988774530861267 4.38855369794455 -0.0784458239208225 )
( 11.751104742136592 4.57872149122496 -0.0720488383441561 )
( 15.866454069845188 1.834037024133664 0.1193331656059669 )
( 15.677146533952492 1.9553864259703408 0.0944162115646449 )
( 15.438013506869162 2.118837491781758 0.0693639673061992 )
( 15.214671147285165 2.2362078641958925 0.0465046572895702 )
( 14.988611565903804 2.352415849533527 0.0245705780429892 )
( 14.75647303596292 2.4710454277502425 0.0044162299601092 )
( 14.50911237059631 2.5965773653055533 -0.0141573123315799 )
( 14.249868530160708 2.737474603171976 -0.031209247608093 )
( 13.981562351909124 2.891783378051946 -0.046569458633872 )
( 13.705200881820804 3.0681937251948823 -0.059801176834703 )
( 13.420322549478414 3.266298063648412 -0.0700950229663472 )
( 13.134983420740486 3.458315662622104 -0.0767146321792209 )
( 12.863073975774132 3.633562265466476 -0.080957626563512 )
( 12.612951936487786 3.7773970026944994 -0.0848018930676837 )
( 12.37410693085902 3.902430305246046 -0.086783170977932 )
( 12.135527846348538 4.037833889153617 -0.0863285922729746 )
( 11.890407959829522 4.193069736195126 -0.0835366739444316 )
( 11.635425778114756 4.366362296010455 -0.0780144347280393 )
( 11.388948177697424 4.581379043342843 -0.0715454587737995 )
( 15.788942204319284 1.7873430329933135 0.0978773803839098 )
( 15.587721606974604 1.906676613210094 0.0735055016220622 )
( 15.333350132505489 2.0663177424848183 0.0492410252712056 )
( 15.099068396447258 2.175868030794947 0.0267175721282235 )
( 14.864562614640477 2.2831763227289104 0.0057983066238721 )
( 14.621837871773169 2.404849320364528 -0.0122064874756631 )
( 14.362500331651177 2.525700645219185 -0.0293604900526233 )
( 14.085325308868311 2.660677722165179 -0.045341531006074 )
( 13.801832137600677 2.820923066811602 -0.059141569948136 )
( 13.509634591605726 2.995605083948486 -0.0706473816705878 )
( 13.199118705679057 3.199609841850351 -0.0792996612352009 )
( 12.890423835237584 3.3989341211482462 -0.0843326126565928 )
( 12.611633257863849 3.5697539854347227 -0.0876211986279427 )
( 12.357883040605786 3.71421270564005 -0.0896007509727189 )
( 12.106301195956828 3.847889331704361 -0.0894840742823754 )
( 11.846703329764784 3.990997469444008 -0.0879002821508628 )
( 11.572662583488276 4.15333842472907 -0.08328027218835 )
( 11.297881234966162 4.350615614653747 -0.0782053570433213 )
( 11.074879459325109 4.617842513027464 -0.0732590825970326 )
( 15.717049293702672 1.7391196830610347 0.0784540745296161 )
( 15.50105968428149 1.8535922900356667 0.0544218359689328 )
( 15.23639979079086 2.010779795326621 0.0315838766078707 )
( 14.998053902851945 2.1159842465090297 0.0102330168838592 )
( 14.75323533977982 2.2188013598355307 -0.0092414937587122 )
( 14.494154003290737 2.3370059012416817 -0.02632836112008 )
( 14.22072987594793 2.4513365605322406 -0.0430250989140071 )
( 13.93729244131858 2.5847705747569028 -0.0573143784454778 )
( 13.637431182081285 2.7482947863744864 -0.0692975673961738 )
( 13.321764998393542 2.919501283325177 -0.079527421427489 )
( 13.000088216382826 3.1205586215586187 -0.0862198183013395 )
( 12.677374634228476 3.334834613559839 -0.0898377325976785 )
( 12.388189914354358 3.507869192911645 -0.0916788945454511 )
( 12.120381515333971 3.649833398649463 -0.0916819116143365 )
( 11.846092209390722 3.791421847598433 -0.0910889684660064 )
( 11.555478317526097 3.939859944129524 -0.0887743866122816 )
( 11.262050297588152 4.119385516635508 -0.0840920117515817 )
( 10.99802264745902 4.355500259874834 -0.0807191276752972 )
( 10.812172608128522 4.679558134744208 -0.0745477225507971 )
( 15.64559730471287 1.6896827937058363 0.0598632467796177 )
( 15.418959813991098 1.7992693071503238 0.0364226035724017 )
( 15.14476837097246 1.950719011570047 0.0147737832732932 )
( 14.9037899938203 2.051150269838661 -0.0046379347443599 )
( 14.65111691313581 2.1548844580300925 -0.0223629522989728 )
( 14.37776017711228 2.2687007206975136 -0.0389882007880505 )
( 14.093829381903324 2.373036823127631 -0.0551940824392522 )
( 13.798533576715528 2.5083924814329053 -0.0677105910649957 )
( 13.480621622613636 2.675272650334032 -0.0778326238280546 )
( 13.147780984844855 2.8504141523818176 -0.0863613952441357 )
( 12.808029423992329 3.045842240750037 -0.0917022090195496 )
( 12.472382374489634 3.2513588854980675 -0.0942547317474867 )
( 12.171812971318008 3.4311301088194583 -0.0945509096950968 )
( 11.882992894451698 3.583407386695845 -0.093375686290408 )
( 11.583147348783916 3.7242046884972506 -0.0919579589610383 )
( 11.272511752559684 3.8813052874254743 -0.0887471295733951 )
( 10.972402976018207 4.0885347744291 -0.0856954046344441 )
( 10.739678495095776 4.379279465538302 -0.0824934595040392 )
( 10.554150136074089 4.744449296305636 -0.0734684061558921 )
( 15.579259306624254 1.637825236396715 0.0433207947084289 )
( 15.34485940531994 1.7415720589935677 0.0207422853320783 )
( 15.058174117126407 1.88344970724006 -0.0008245422484514 )
( 14.814251271324489 1.9831955674707025 -0.0185735648740255 )
( 14.552737709763424 2.083324997509686 -0.0347657278495312 )
( 14.264948491251198 2.1948837061475586 -0.0503687046687352 )
( 13.980562802732544 2.299671710562249 -0.0649961797545189 )
( 13.670862621962888 2.426868590751325 -0.076572490424603 )
( 13.331426949765763 2.5934392791308585 -0.0856532556935127 )
( 12.98043893662202 2.776766242119451 -0.092589625365558 )
( 12.617874344017707 2.9764234150465563 -0.0965292156017811 )
( 12.276712805213922 3.172837232111581 -0.098476911103487 )
( 11.95859936383494 3.3485121071522315 -0.098439496020636 )
( 11.644487609730437 3.508605731485132 -0.0957529791933262 )
( 11.330351487212704 3.658453713325194 -0.0922616648600948 )
( 11.01220390323418 3.838330663140868 -0.0883558529900936 )
( 10.717786800667987 4.0841151443233645 -0.0866380537284476 )
( 10.500965506557629 4.419116544891022 -0.0830042407654122 )
( 10.21206203027837 4.760162423807373 -0.0732068135955098 )
( 15.521194605527564 1.5841252215076238 0.0290566417192797 )
( 15.273786134860028 1.678449522865793 0.0065336244222193 )
( 14.97722699301861 1.8135739487293023 -0.0147382401246735 )
( 14.727720946342084 1.911861233955963 -0.0311315194724868 )
( 14.45858145393281 2.010315997573539 -0.0461439328107056 )
( 14.160745017978762 2.123296300871086 -0.0604371273214553 )
( 13.864680079678068 2.2273733465606385 -0.0732576991162658 )
( 13.54788305273967 2.346848634690576 -0.0838713754251578 )
( 13.196896769999825 2.5067898471365533 -0.0921006634097695 )
( 12.824931283299122 2.6875252840832045 -0.098332048944904 )
( 12.445879186865277 2.896251386752789 -0.1012678624928003 )
( 12.094643166737065 3.0999072744051377 -0.1018213265716667 )
( 11.75406569581981 3.27145153216943 -0.1018060835126617 )
( 11.420114572012308 3.4283525094639584 -0.0986199600905301 )
( 11.087550793556874 3.603223782348225 -0.0929716232774763 )
( 10.763213563781813 3.810401811446654 -0.0893365073899502 )
( 10.48757829942305 4.094050898847354 -0.0883880079464602 )
( 10.22390427995496 4.452550734001857 -0.0811984286786761 )
( 9.741321903295855 4.699288043484185 -0.071769938583401 )
( 15.462869384436411 1.5244269397167605 0.0151861382471031 )
( 15.210562055057244 1.6168040441625802 -0.0060414078589122 )
( 14.909908638520372 1.7444816615243008 -0.0262562974293449 )
( 14.648337956909389 1.833324914043855 -0.0422838986377296 )
( 14.371553780004408 1.9329834028919597 -0.056542722457559 )
( 14.068406993894683 2.0493211591736293 -0.0695134782341474 )
( 13.758156525676258 2.1485288018510564 -0.0807662903140275 )
( 13.434626709980565 2.2623010815626894 -0.0903368511771721 )
( 13.065559260873414 2.4220376888385937 -0.0974616883905769 )
( 12.677571999955536 2.6030372375401942 -0.1027775436707629 )
( 12.284937158891232 2.811340672946613 -0.1054276994350546 )
( 11.909113490748236 3.019762098119925 -0.1049179446447206 )
( 11.558340461619874 3.19907352102875 -0.1034538381511507 )
( 11.2181194851543 3.357270925740353 -0.0993401002949574 )
( 10.866024104776352 3.5500562884129403 -0.094620314251572 )
( 10.530289919335091 3.790104903188228 -0.0927894600400546 )
( 10.259430746543218 4.105802253810782 -0.0888287323757383 )
( 9.901790201463443 4.456762199509215 -0.078987646888485 )
( 9.117974020902713 4.534836625764989 -0.0696299640506746 )
( 15.40664097551056 1.4627214569389886 0.0022496027876305 )
( 15.152091734357308 1.555531024780182 -0.0171214114477925 )
( 14.846834069796984 1.6796434793049595 -0.0363405323693729 )
( 14.578994034166778 1.763490043225677 -0.0517957304767627 )
( 14.29073444294722 1.8590126072213624 -0.0652353047080343 )
( 13.972682582151782 1.9646792437312133 -0.0776172448336478 )
( 13.653320030092765 2.062590511725984 -0.0880538584058425 )
( 13.323897483891562 2.1740418366962317 -0.096976242586647 )
( 12.930237142944277 2.334319894563258 -0.1031642645552024 )
( 12.52708882586614 2.5229073930224155 -0.1068605296196237 )
( 12.13220306789447 2.727040383550956 -0.1084545537749837 )
( 11.746716241017548 2.937572277914573 -0.1068901646671685 )
( 11.382791010423537 3.127069708808169 -0.1038836039866964 )
( 11.01747452139826 3.2922620389009496 -0.098595105397857 )
( 10.656753571730068 3.494384613069942 -0.0944035604509655 )
( 10.32122361605438 3.7672444607293336 -0.0929544300999447 )
( 10.001414509948114 4.1111701551907975 -0.0875169498563233 )
( 9.560208713086002 4.435729515262839 -0.0794068450379172 )
( 8.289579142528442 4.223327386236608 -0.0650289918444005 )
( 15.354859143411616 1.4072756435998766 -0.008686196948552 )
( 15.093113594318265 1.4948896712748376 -0.027566150585986 )
( 14.7836269130691 1.6140003051088705 -0.0461972263187695 )
( 14.51456749555078 1.6970226868383953 -0.0604396738735072 )
( 14.2158458287471 1.7856185190412504 -0.0732355023287167 )
( 13.889861606872577 1.880518669570676 -0.0849845447349458 )
( 13.562104215712369 1.9828137487700723 -0.094188211940582 )
( 13.216732410668529 2.1011198897252528 -0.1021382078069313 )
( 12.803857359812858 2.254391334178872 -0.1081477326515365 )
( 12.3801141240303 2.444379169790359 -0.1105840495143786 )
( 11.979178848497009 2.6439654083337145 -0.110229159450623 )
( 11.592882089089509 2.8422673551655238 -0.1081124283567722 )
( 11.21219250371518 3.031833323636584 -0.1043779034029665 )
( 10.82384873636046 3.214664956217977 -0.0991160113307106 )
( 10.451529799038113 3.438634311618463 -0.0935088347703695 )
( 10.108463940585144 3.7389301487988496 -0.0892700153063744 )
( 9.713230980816736 4.094662089179382 -0.0840653108964657 )
( 9.039014346193404 4.301925715290458 -0.0745496273623329 )
( 7.460088626700021 3.8742994927808985 -0.0566761294517297 )
( 15.309101519393185 1.349026521892262 -0.0185555538444557 )
( 15.041138406852378 1.4348076389483928 -0.0369313847509267 )
( 14.722455203445584 1.5489345002833526 -0.0552883432812297 )
( 14.449304716037084 1.625185381070176 -0.0687376235549502 )
( 14.145573909046709 1.7131569735847398 -0.0800978591537185 )
( 13.820100971477796 1.810546626278416 -0.0913597544193896 )
( 13.48871660191599 1.9117639072031365 -0.0997670899917856 )
( 13.121420090079347 2.0272374690383064 -0.1066422508880088 )
( 12.697161291658524 2.178466029093693 -0.112354958902344 )
( 12.265221147105366 2.3662194857336765 -0.1136960657957722 )
( 11.846653728185744 2.563583107240308 -0.1123908319960386 )
( 11.435285750923535 2.752820497982285 -0.1098668468437917 )
( 11.034380812350406 2.935865960674181 -0.1064706113279255 )
( 10.634699289515355 3.130961861461389 -0.102279708836646 )
( 10.255358545159714 3.384506936731013 -0.0960924976674755 )
( 9.886413415701986 3.7203160404789375 -0.0902722838517112 )
( 9.421896859233792 4.063487662531821 -0.0821632567692046 )
( 8.440192971616405 4.0829979123721545 -0.0673932439493102 )
( 6.727430213996466 3.5417352082810787 -0.0510704135857635 )
( 15.267836989634777 1.2878006637270716 -0.0277078354516483 )
( 14.998820500701749 1.3730678542235433 -0.045065204630908 )
( 14.67036245297881 1.4850748157600866 -0.0626777393041518 )
( 14.38842288155928 1.5551664514393324 -0.0753450144558987 )
( 14.07739935088936 1.6384565678875258 -0.0864057246546107 )
( 13.74809959341436 1.735125383701828 -0.0970829577185847 )
( 13.409727953652004 1.8252109964917904 -0.1054320406722447 )
( 13.030573938051578 1.9388783624082004 -0.1117078975809 )
( 12.60692073244497 2.0998623754155847 -0.1158296199103704 )
( 12.167945432804752 2.2850672434259263 -0.116425493058046 )
( 11.727170199734644 2.484302420536388 -0.1155029512486299 )
( 11.29005012463689 2.6668186807903385 -0.1123860263053629 )
( 10.870734478732944 2.8454199423949027 -0.1094918661443273 )
( 10.449633026373249 3.056070339020502 -0.1056468476752464 )
( 10.05803769506547 3.328887403281919 -0.0981242647730164 )
( 9.638282298432252 3.6823833281696903 -0.0921526058879832 )
( 9.079599746346387 3.98479195664584 -0.0835168533260544 )
( 7.915029815793314 3.858877264695921 -0.0649639149128645 )
( 6.0317554154410935 3.192766434988427 -0.0471573005017648 )
( 15.2314034035822 1.2348227222953454 -0.0354680404962832 )
( 14.959006734974183 1.314357853116822 -0.0523501786131499 )
( 14.623747009141212 1.4192044630313063 -0.0695579988796244 )
( 14.33459804327653 1.4873806984950526 -0.0817560837071234 )
( 14.016843774078914 1.5633146088490224 -0.092699489118358 )
( 13.684496228820912 1.6506280525024035 -0.1023542269803213 )