/*--------------------------------*- C++ -*----------------------------------*\
| =========                 |                                                 |
| \\      /  F ield         | OpenFOAM: The Open Source CFD Toolbox           |
|  \\    /   O peration     | Version:  2112                                  |
|   \\  /    A nd           | Website:  www.openfoam.com                      |
|    \\/     M anipulation  |                                                 |
\*---------------------------------------------------------------------------*/
FoamFile
{
    version     2.0;
    format      ascii;
    arch        "LSB;label=32;scalar=64";
    class       volScalarField;
    location    "0.003";
    object      k_LES;
}
// * * * * * * * * * * * * * * * * * * * * * * * * * * * * * * * * * * * * * // 
 
dimensions      [0 2 -2 0 0 0 0];
 
internalField   nonuniform List<scalar> 
13597
(
0.261975656406922
0.262121346364203
0.2631033127389984
0.2682044818566737
0.274561329387477
0.2806075174387849
0.2868556854268876
0.2924660366170903
0.2981640791893006
0.3029080316700119
0.3068741729877147
0.3104668282034988
0.3120308293472053
0.3125617740637401
0.3129973990207233
0.312684438984613
0.3111171066760299
0.3080796813159194
0.305118722290171
0.2698689314483379
0.2707377901239151
0.2723901913332345
0.2792863045580429
0.2855496788182143
0.291240799459493
0.2962530150180388
0.3009304825794507
0.3055823806143358
0.3084604037268043
0.3101262157855107
0.3111555473403424
0.3104218414410618
0.3088972676387372
0.307490756013181
0.305345131550257
0.3028060811377868
0.2997668795531124
0.2970557584128196
0.2789171767555893
0.2803591368372409
0.2816637311741535
0.2870674674247302
0.2911919137587114
0.2951019009810991
0.2973820269231275
0.2987012535152518
0.3001299188486674
0.3005100054160469
0.2994453830351326
0.2988345710384754
0.2985023755288408
0.2980079363723455
0.2980281933557884
0.2982704392225085
0.2986967734724594
0.2993141693945989
0.3000990789340458
0.2863575631692156
0.2868697108544983
0.2865305438034864
0.2885723642601301
0.2891840971980365
0.2893738967134665
0.2890330062467395
0.2884074715165086
0.2885498508698234
0.2898531273169389
0.2910556851294952
0.2936008020382687
0.2971917696847778
0.3022363569283869
0.3077776042944978
0.312893611088296
0.3179568143606634
0.3234671848352806
0.329133354762457
0.2909078785061787
0.2882986809915036
0.2845564701381683
0.2828651451253238
0.2801143800415246
0.2783383323355221
0.2776556657023056
0.2778274229266297
0.2802596672622318
0.2856400453383261
0.2935915374797885
0.3030979084865328
0.3135554115986765
0.3251156518695597
0.3357229166407218
0.3454378614906669
0.3546770021233426
0.3636610569128407
0.3725092647067873
0.2905042763868894
0.2832889386571914
0.2751028448354303
0.2706024848307671
0.2669218486776958
0.2665486537391008
0.2685685478245433
0.2727829204425228
0.2806233519205065
0.292477516550329
0.3071604666902182
0.3228243721713933
0.3393265586581895
0.3550943162643068
0.3690757893077648
0.3814044333588014
0.3931295724119008
0.4039425589306214
0.4145006763551229
0.2830265378019502
0.2719635539181829
0.2622754035142244
0.2573651736654082
0.2557512444895374
0.2579153750758823
0.2633396523075175
0.2733655730611546
0.2871481997117736
0.3047323821724689
0.3249987470371459
0.3460975313152376
0.3669353027642354
0.3856711283136241
0.402610322506147
0.4174084654784604
0.430793648024917
0.4439312036621505
0.4565586952830936
0.2721640211814967
0.2588833863895346
0.2499686065811507
0.2466216321407
0.2474087884127193
0.2529054718763062
0.2629148272062799
0.2782878644836137
0.297943039456497
0.3205821402676076
0.3461077292634285
0.372310333247339
0.396211221886628
0.41760144135649
0.4362584348945074
0.4532861076580681
0.4694073065080862
0.485474335150534
0.5006245283973325
0.2592503524678527
0.2450069938450441
0.2376818928962064
0.2370187056195778
0.2413399351748752
0.2511432695968477
0.2660677934035413
0.2866169506821677
0.3116921984612118
0.3401339836993427
0.3699511580033953
0.3993112101409862
0.425867802934163
0.4500772748673539
0.4713313360422465
0.4909341588259755
0.5099243343881729
0.528784438515281
0.5473236764010506
0.24644666638835
0.2328437850515899
0.2269392326646555
0.2294516716360324
0.2382820093623024
0.2525432489566783
0.2720068884827404
0.2979586034839164
0.327609148160054
0.3599990345985366
0.393708323106459
0.4259658970974741
0.4555595674320639
0.4823935858759215
0.5065555363515314
0.5296560224972348
0.5524893869762277
0.5751941615621879
0.5981674352110208
0.2347300772919526
0.2225156223378143
0.2189172526578068
0.2244578384200637
0.236597071857206
0.2554661366271559
0.2802426234031316
0.3107430372828241
0.3447384506090321
0.3798740711879037
0.4164721248969887
0.4526589525094835
0.4848989258565553
0.5146538545831697
0.5427755444604727
0.5703697109455331
0.5984755686290196
0.6264049535983909
0.6556480190392783
0.2233022256932372
0.2134008963607624
0.2137115836484033
0.2220028472058788
0.2375358508167034
0.2606037348468199
0.2902487734753773
0.3247308636810017
0.3617723675437416
0.3999081058226086
0.4392145980434566
0.4785172793075496
0.5143984330658811
0.5487307645855269
0.5823751336056899
0.6151818424997375
0.6485899530959683
0.6837623785790689
0.7214342387362782
0.2141349095976681
0.2057467378961738
0.2097486533691592
0.2219244550571423
0.2417668864903132
0.2686210078325736
0.3014141114666887
0.3390755247241988
0.3787283959574107
0.4193803606271467
0.4625857782508153
0.5052004896974592
0.5456737246767839
0.5859953497447218
0.6246517507898123
0.6629326251541579
0.7042600257858519
0.7491169494751475
0.7956957757877167
0.2077142324894249
0.2006302233070022
0.207403634265604
0.223204055974748
0.246865178392955
0.2771202251226279
0.3122030061728615
0.3509419448187427
0.3931948143369536
0.4377868009810827
0.4845538273921317
0.5321550120669266
0.578643480498882
0.6240204997002515
0.6687071146872988
0.7158088100831339
0.7676225583618386
0.822222149215356
0.8789049064195609
0.2023592079727153
0.1973460291348582
0.2077103328382239
0.2262688437716409
0.2524944217449894
0.2845159605039347
0.3216082663074744
0.3625728457827289
0.407106589491785
0.4550566526334704
0.5065377246970891
0.5602270597568779
0.6139777854571434
0.6650905126780989
0.7174412367090987
0.7749153299125007
0.8372896956758822
0.9036387215179352
0.980611973345818
0.1973108821611059
0.1941861425599228
0.2081677874883105
0.2301188459847614
0.258394694890011
0.2916826908110542
0.3301005628866451
0.3735573400826226
0.4213680016178688
0.4722244822743657
0.5299918476284525
0.5917779192852118
0.6512042925552888
0.7087105595488645
0.7703549316606182
0.8380820871510742
0.9130149181432186
1.000169245313025
1.1137391842381046
0.1929974640136069
0.1922405634547244
0.20934768764553
0.2338641425843658
0.2640312387942202
0.2994419116688866
0.3392929808408975
0.3838063063105175
0.4346504068664204
0.4900412335777277
0.5517638736357077
0.6209540337437184
0.6878700794414562
0.7536021653077897
0.8258019931477605
0.9060607997924012
0.9992383745627508
1.1196574427615829
1.274375171084413
0.1902370836896131
0.1920261778156004
0.2113596142758155
0.2372449150828328
0.2689423058219837
0.3059380644825309
0.3467132898818299
0.3933953997729744
0.4479335410200615
0.5078341751239733
0.5749106639638699
0.6501853952663512
0.7253610938812535
0.8020004030407263
0.885392053685003
0.9798262897067218
1.1017253842048602
1.263976461420245
1.4291282625604584
0.1883131242334013
0.1919697509953674
0.2137350846069009
0.2409225083827545
0.2731459829712725
0.3118647883025502
0.3533440139186566
0.4017539827747767
0.4600964670490657
0.525542863982198
0.6009459214883007
0.6813473544938354
0.7647524466342093
0.8536262896563901
0.9492060103840492
1.0655603401053813
1.2259329283654778
1.4287596505354232
1.564488345615389
0.1871650601437097
0.1922551861826056
0.2163502032398956
0.2444899233407538
0.2771977036074529
0.3173937447513693
0.3607342002788692
0.4101995345734706
0.4709187521477872
0.5422454422869087
0.626010905934126
0.7143919727838335
0.8068001840028637
0.9050379416797694
1.0202197185135908
1.1660331152919252
1.3688581462645333
1.599766806214507
1.671407158457094
0.1868394216858079
0.1930887462770722
0.2178315624833205
0.2464966127554831
0.2804613988093776
0.3218205897552876
0.366593040017437
0.4172497541078039
0.4822727751867693
0.5593377573471484
0.650263296012526
0.7498469623177417
0.8505374299868104
0.9564242319479158
1.094365841282088
1.2814747900183772
1.527567806414973
1.760200466988644
1.691452855722942
0.1866499224620164
0.1941764925849661
0.2195932645740968
0.2485625736638053
0.2837457334681743
0.3267382272209116
0.3727499987688282
0.4246991840803559
0.4950898254256825
0.5781643293978693
0.6742974949938851
0.7808823329465495
0.8900885976669487
1.0130861009842291
1.173673423774613
1.4056021267039869
1.6902773141162402
1.896380602647263
1.589818209864141
0.1866078629643667
0.1956306841615895
0.2220766346691861
0.2508290276923834
0.2864249231242524
0.3300855242256661
0.3779590154366564
0.4334403653243638
0.5082664494439336
0.5983179276724194
0.6999636964568894
0.8104563439161556
0.928178242736652
1.0709697623614276
1.267061153083729
1.541967050386866
1.850218616287881
1.9484649744954756
1.4643887067385173
0.186685308663298
0.1965504142550872
0.2244034869844452
0.2527191566708825
0.2884612880851054
0.3328015657584995
0.3814689678526111
0.4404308443944052
0.5189541621959868
0.6139127104465355
0.7223821659007985
0.8430126726804191
0.9726870107031128
1.133904578825791
1.368075444261165
1.6852938440967544
1.998125836496044
1.930672301646468
1.342756640897463
0.1870205393005961
0.1973884377179586
0.2253869830172939
0.2539595698289927
0.2903884792946138
0.3350947130072758
0.384394716473124
0.4463229407927165
0.5278990823953303
0.6271439041868946
0.7441039961704079
0.874796645258572
1.0168299006389223
1.2073843021131871
1.4731080413748323
1.8206879183559088
2.1082548712686275
1.8953561672169097
1.2035389821959093
0.1876701173652949
0.1988565515248619
0.2263027406352569
0.2552804209975201
0.2922573429044294
0.3362749301006572
0.3876268543860843
0.4526973604119187
0.537063808960871
0.6428186455004375
0.7661009256866045
0.903625561626034
1.0600627734467494
1.277996341221068
1.576349838894195
1.9489952200030407
2.146153947926964
1.8057321996108784
1.0958315103050609
0.188096869772473
0.2001262352996765
0.2279653028821187
0.2573658825259661
0.2936981038057384
0.3375321588416458
0.3921502047013396
0.4606865025448053
0.5478051854250355
0.6586991693414266
0.7868148952606739
0.9304172544914208
1.1025929873424536
1.3414532081364154
1.677177568217063
2.0618931608056883
2.159075749240238
1.703089383552437
1.0055679913219586
0.1891100245268322
0.2011311369777407
0.2292721794651452
0.2593005012778475
0.2947544279434663
0.3394177758853121
0.3960439423687479
0.4663261784750316
0.5569347555167344
0.6746900982696079
0.8094100902789987
0.956407060394557
1.1417963433686158
1.405673730222724
1.7856349476973583
2.1688264291970407
2.1960419629986974
1.634279084235883
0.9278156814320152
0.1904722984526848
0.2020485477333481
0.2293113980517062
0.2597825357597705
0.2952573782566576
0.3407692301472759
0.3982621066794556
0.4697984515762803
0.5645876259155231
0.6880334450395698
0.8273962781511731
0.9838747866580684
1.1923573637142602
1.4757157654123356
1.8831460304581715
2.250225800450483
2.1995886818906
1.570473165806203
0.8766685938498228
0.1918459500426089
0.2031684708095207
0.229797837793436
0.2602567270534417
0.2961207188580207
0.3423051537611163
0.3999868233398489
0.4741811966591361
0.5736490133032773
0.6982591982292568
0.8406026595325888
1.0122084061488066
1.2378840611812378
1.543185942423436
1.966571712077694
2.2484762140131616
2.116711048590804
1.5043488574279194
0.844834733496236
0.192924354196071
0.2043451488401562
0.2312461474299922
0.2612849470409661
0.2973236701550659
0.3445230053625122
0.4024510432194287
0.4796453190436704
0.5828553427915477
0.7092915484395356
0.8561381994086533
1.0389244286468946
1.2702065333162824
1.6023919888891935
2.040836696009276
2.23369565696441
2.0297234602864336
1.4452020215406156
0.8219635232986457
0.1937637944669455
0.2052780367853485
0.232396839617432
0.2625706020551805
0.2988459724366091
0.3461863972981994
0.4054203026494652
0.4857204638010192
0.5913140434522257
0.7205512965608902
0.8717539092270914
1.061497975973069
1.30340763232365
1.672647798995083
2.110553972775268
2.259007304576302
2.0062270429046385
1.3959513903005214
0.7952735700168405
0.1948047435835388
0.2061934697124587
0.2335624777409901
0.2639806781321721
0.3001355012318565
0.3462615896126497
0.4066195155302277
0.4901743181600925
0.5982637918355218
0.731297273362251
0.8872769559985318
1.0834566977009368
1.33397067753626
1.7312636033842288
2.176796526312827
2.29697505276469
2.0049957695366354
1.3601902092705782
0.76583121495645
0.19628384081556
0.2075781687649433
0.2345959249668095
0.2645646916188446
0.3005625514934691
0.3462585416622593
0.4066319708128359
0.492658500327607
0.6036410612178135
0.7418873421454876
0.9043263933988964
1.1048371002501407
1.3610849524508808
1.7726674755228298
2.2339266404157176
2.335844286952248
2.0078870282250363
1.3381532591725986
0.747073882144588
0.1980982981105044
0.2094041628528929
0.2354917822572819
0.2645545276408919
0.3004566604612036
0.346850320330279
0.4074515997879763
0.4942127766048736
0.6080902101294368
0.7500327473297734
0.9172257626312144
1.1223413231501682
1.3896949655469806
1.8150283985752032
2.2747798666611185
2.3552952240154337
2.0028779816611846
1.3197932702482182
0.734123127920837
0.1995823430660963
0.2106350869276667
0.2361193705630064
0.2644224690219864
0.3000571729111558
0.3470182773637787
0.4079435017924255
0.4956106220995929
0.6127988621577699
0.7558414313193036
0.9263730027932672
1.137863895809227
1.4161484660179842
1.845901348185451
2.304865406007626
2.372287824462817
1.9917130898198223
1.298227987993012
0.7197077325104289
0.2006965293834919
0.2113945152963863
0.2368177843433735
0.2644515978217267
0.300160433642276
0.3480237745542506
0.409818987094922
0.4981478746443518
0.6176281941810854
0.7618599252380346
0.9349374218684412
1.1527694233983652
1.4391050032615322
1.873549248807721
2.329930281735073
2.379905641188866
1.9884747082017449
1.290541762763072
0.7081714620324472
0.2020155813323361
0.2125238809441272
0.2374456432962087
0.2645599120207824
0.2999854475077655
0.3481821653408368
0.4120740115206615
0.501057182249411
0.6222930582714146
0.7671711899508008
0.9426749465194294
1.1663630536563865
1.4663392326665203
1.90489553167704
2.3409544118076338
2.3793214623175367
1.979292654006772
1.2849945596884942
0.7011478151363078
0.2036979256667474
0.21368042278184
0.237687096981701
0.2649122909313202
0.30001877487934
0.3473884632263005
0.4120582870196858
0.501974756769823
0.6260280383619262
0.7716734532867713
0.9488008424315978
1.1770333693349109
1.4938885629092555
1.9410378578398844
2.34563653209478
2.369518288050152
1.9596958638095776
1.2706054882799966
0.6971660964338535
0.2053881120196071
0.21485130322817
0.2383646240553108
0.2654001408567514
0.3003300854130512
0.3474906951350963
0.4117439447264043
0.5015369763885528
0.6269920222344983
0.7735513168688619
0.9521198218683842
1.183792681731204
1.50890352640523
1.968247038256679
2.352905856475522
2.352530103451887
1.946101141344058
1.2620604669159965
0.6954425982818485
0.2071367083323625
0.2160408461803428
0.2390081216100321
0.2656586770530226
0.3004629109629975
0.3478858502086651
0.4117960679563281
0.5017893001653695
0.628663236141583
0.7773806538594337
0.956058459827842
1.192211689510298
1.5219997733930104
1.9822782067133728
2.351924383728314
2.331627738860413
1.9282219731046464
1.251684533988521
0.6944721677868643
0.2086886195689011
0.2172282965970353
0.2396057803350218
0.2657448443896504
0.3002592510749553
0.3480671595487243
0.4125503291727387
0.5030802904718868
0.631706467881461
0.7846060299149398
0.9626625644015344
1.2008832842720167
1.5335081936349728
1.9871943498201108
2.3490533343171696
2.319984312188444
1.90879716349852
1.235833626797652
0.6905405991836194
0.2103202126038125
0.2186115680501771
0.2403805014814983
0.2659742736852257
0.3005590004584661
0.3487185681649813
0.4135701967360102
0.503401050020572
0.6312427920497306
0.787784752721322
0.9677061487134176
1.2042243888108777
1.533923504443886
1.9935130352504828
2.3601619569335357
2.3167821083208446
1.8924010875021635
1.2218706985807264
0.682525504591053
0.212089026876154
0.2195071296782771
0.2404332109913918
0.2658983822330066
0.3010846852571825
0.349164687877008
0.413307831633248
0.5027796525700213
0.6320177122945689
0.791775544119522
0.9723731589647796
1.2095057943576994
1.5378263624953634
2.001142692698936
2.3555208625474733
2.296742892891724
1.8762585953472208
1.2131332283765048
0.6782894677341034
0.1924873250372538
0.19063708735712
0.1885689333691083
0.1882148287638784
0.1900788965096747
0.1925513502738167
0.1953703350834726
0.198821094844748
0.2036112499364367
0.2088511203492531
0.214920284000951
0.2221071723351983
0.229100216110229
0.2364355009336355
0.2441813205087283
0.2516362355081313
0.2598620574206483
0.2679452209388684
0.2746511959362014
0.1963935941831956
0.1959869918250597
0.1949017889322588
0.1965491572786513
0.199771300251679
0.2031730072812661
0.2068804970968411
0.2108198106106187
0.2152404749715714
0.2201704957376804
0.2260405535615574
0.2333211509113068
0.2402577054022226
0.2476472815427353
0.2557774777077978
0.2627418392550353
0.2699401226256144
0.2774908997500922
0.2840864697860759
0.2040109675495009
0.2056574323060463
0.2068849625037828
0.2111138639612249
0.2152777379658902
0.2187968611451014
0.2228051546810733
0.2271070675121127
0.2315573500004651
0.2374923322028221
0.244872730285153
0.2536614584037376
0.2628327136640004
0.2717147402835362
0.2805386355720662
0.2881619036204408
0.2943560710049219
0.2996144389390287
0.3039594962251359
0.2165462931141876
0.2199565560723636
0.222313832353728
0.227196926627801
0.2315883918125835
0.2358036923081681
0.2405432830500264
0.2461231650300515
0.2521786327644724
0.2597728132003498
0.2690268037624536
0.2784191656407667
0.2879809713423695
0.296709553955338
0.3034353866324344
0.3082562778699136
0.3116335186645527
0.3146370571256122
0.3174095350492036
0.2306343393551778
0.2349899699079819
0.2380271955170667
0.2432072811246859
0.2482907019418751
0.2538910032483534
0.2607463739113466
0.2683588323029752
0.2760733977437785
0.2845250848424829
0.2936179349223182
0.3013489139182204
0.3082280991734494
0.3144019985355817
0.3187588130509736
0.3219144388652227
0.3242994319581914
0.3263349914157439
0.3282212000788991
0.243488662835287
0.249589248345502
0.2538825569931364
0.2597582454437006
0.2661573653543412
0.2733419911450007
0.2814675413977995
0.2896610661784273
0.2974126077744153
0.3040539148021478
0.3101787381507712
0.3156163378971628
0.3204093769244063
0.3245626497798248
0.3280510473904244
0.3311533793354217
0.3336856563030209
0.3365932943339317
0.3400696542579606
0.2582495073379225
0.2648498676380756
0.2691467502481534
0.2756367801552827
0.2832190938455192
0.2907756831342064
0.2980684082946749
0.3047883297154037
0.3103182012955071
0.3144573034501994
0.3183991831767627
0.323318314417869
0.3284389350543699
0.3329693397313169
0.3375231190303355
0.3424256978352161
0.3476634949544797
0.3539537933847987
0.3610742581589863
0.2731298812166822
0.2781939294744491
0.2833776502768588
0.2910184518554616
0.2977997487145148
0.3035840411053089
0.3094167377312529
0.3136995275880328
0.3161878454338215
0.319418285219687
0.3238657789866072
0.3300569514956643
0.337175123933552
0.3443388357542212
0.3520237923162834
0.3607425542892777
0.3705114032333481
0.3815097621098735
0.3936105743439222
0.286856926890267
0.2910240076473736
0.296281678500299
0.3039158615019712
0.3090708902399445
0.3128667513850032
0.3160636811897466
0.3179707478436275
0.3197322516250876
0.3232270906230037
0.3296218948824599
0.3389956362441415
0.3496156691882591
0.3609645055912382
0.3733965274054869
0.3870886672657838
0.4019266893217671
0.4183918532851243
0.4363368752535898
0.2976478732635605
0.3018698212168267
0.3071652051216065
0.3131130526361692
0.3160284641697787
0.3178286411346878
0.318760709779365
0.3195196781457577
0.3222684691802235
0.3281457968968559
0.3379742205799869
0.3516321342995063
0.3669508415690219
0.3835117498293612
0.4016272988177758
0.4208552723475035
0.4421852305318026
0.4651265036834215
0.489127233844588
0.3062334375617721
0.3111428632300064
0.31542692603519
0.3189939595174768
0.3197345127306044
0.3192895143224042
0.318651794740176
0.3198592436897253
0.324609560486485
0.3341063395093893
0.3489951871177156
0.3681694073808643
0.3892595509397686
0.4121478229206924
0.4367468836566509
0.4621410241741234
0.4900451484868141
0.5199352895156574
0.55098355076428
0.3150632478100278
0.3186562791048914
0.3209854457570037
0.3215755170793503
0.3197670405906713
0.3180154648151541
0.3174251125195438
0.3206397014070762
0.3288294955439431
0.3429831553153925
0.3642782452832398
0.3893994181722822
0.4161549156448038
0.4455751839117653
0.4769687987433914
0.5097032306790364
0.5448880874207446
0.58268493909973
0.6225472156766397
0.321877671844006
0.3231346808753162
0.3237176629838649
0.3216426302283821
0.3178841271283736
0.3157060970710962
0.316319724271593
0.3222054853196905
0.3354779607978117
0.3553229831049918
0.3822087771151805
0.4142806663932651
0.4475323983550512
0.4828737362984675
0.5216200555379282
0.5629369663194906
0.607092712953178
0.6547179219257041
0.7052265947931744
0.3261943685728455
0.3254169049785417
0.3239782551974502
0.3200909674574019
0.3156457337658346
0.3134439985777564
0.3159809753474937
0.3258800227517839
0.3441351552695658
0.3697053848574455
0.4023268756815404
0.4408804334484426
0.4820292712863767
0.523992038742825
0.571065497196617
0.6233024421553884
0.6770309953854734
0.7344308041899132
0.79772144071219
0.3296191954668059
0.3260059157618117
0.3220957631162457
0.3171463922028659
0.3124527602972806
0.3109047042150448
0.31676763838415
0.3307755461198735
0.3533921239202483
0.3854397262500098
0.4246314234707454
0.4689668000305633
0.5182277849047301
0.5701240782399597
0.6255653386685138
0.6879317799197757
0.7531016975753543
0.8238145673703765
0.9130712457869764
0.3314682910510519
0.3253581116310088
0.3191994855688726
0.3129264568025657
0.3086009292770684
0.3094529523455887
0.3185954259984671
0.3364282691880445
0.3638081659076244
0.4022445374247091
0.4476193171459708
0.499772736188297
0.5577123137416385
0.6199501121377886
0.6846790211780832
0.7543669324350354
0.8338275685289854
0.9308279154035168
1.0594248795616394
0.3304867044144631
0.3225526174798055
0.3156726945855404
0.3084039076066843
0.3048447231584226
0.3085746389383602
0.3213285415557211
0.343906362659359
0.3766736153242223
0.4201706063976432
0.4720356028899915
0.5329843833243157
0.5991258814716686
0.670068895191185
0.7456724548657556
0.8272431288373463
0.9260248077373068
1.0606826260797702
1.2219137070758552
0.3272084341168892
0.3176234595592826
0.3105141449539823
0.3035350959780581
0.3015228649814723
0.3082049080206907
0.3250229708884052
0.3520696139681192
0.3905800118551032
0.4389594509837043
0.4982865197389213
0.5683153123983482
0.6432543834621991
0.72357012328507
0.8090891906345503
0.9082908496866744
1.0376937441271226
1.2185300401647872
1.381287893291835
0.3225830429963357
0.3124667202622468
0.3046972922085897
0.2987369280867532
0.2988859583861736
0.3082326272951153
0.3289932379043915
0.3607783259481636
0.4042036341974032
0.4580095728465364
0.5251659573600775
0.6032178107884522
0.6884093209348099
0.7783653274411764
0.8752497099724795
0.9999649516404602
1.1705830989548809
1.3846798383211796
1.493433241398328
0.317975537701253
0.3076587957784689
0.2996960499445433
0.2948569241115565
0.2970724404421196
0.3088107744168988
0.3323549195281359
0.368918468038201
0.4176100980181603
0.4777482633989367
0.553734818335609
0.6404011232186729
0.7346203433775067
0.8353717541655535
0.9480213023393804
1.1020489486671987
1.3211993835792109
1.536977559644041
1.5545928358564989
0.3131171372489303
0.302206437661294
0.294613936227893
0.2913990132048181
0.295887005075621
0.3101821089567484
0.3372005239112333
0.377450232471686
0.430137027343916
0.4967492941878351
0.5818696506326817
0.6796557789807824
0.7817693821912316
0.8954501467373704
1.0314725197737644
1.2199682298775718
1.4771400596489608
1.6756800037915065
1.5592453288794572
0.3070792683370739
0.2958172142983606
0.2894666287228471
0.2879966788271461
0.2946038651172415
0.3117146989382102
0.342569815917771
0.3864484914493241
0.4437150368456868
0.5164395571991663
0.6086418296681899
0.7158337640215766
0.8276950164537396
0.9548859416298642
1.1149937265082694
1.3515774309909678
1.6441062982082926
1.809973107028294
1.458873025291161
0.3014914152591098
0.2899914603305579
0.2848956247286597
0.2846831624179026
0.2930488332935054
0.3133833954521856
0.3476969760464125
0.3952494846342152
0.4589127060981451
0.5388530723702732
0.6377318558093157
0.7538342616461674
0.8779569890350403
1.0199245945533113
1.214107318946606
1.4993963398360328
1.802555782519238
1.8388102443984355
1.325210361392709
0.2953849725361244
0.2841478727943057
0.2804457686305006
0.2818607855693795
0.292562057588334
0.3155741313608251
0.3528354490063493
0.4036444080035049
0.4723388399838632
0.5603718170572386
0.6664169709119303
0.7908794061536838
0.9278581512382408
1.0891013154846831
1.3229252269562048
1.6476012203711037
1.9267272465900425
1.792902862926966
1.218370669578227
0.2880032461543452
0.2777858071081909
0.2762422515637877
0.2797180963399297
0.2928056312442358
0.3177551452307319
0.3567326334478571
0.4113950224980618
0.48477870073998
0.5803189064361061
0.6956562480620309
0.8279596325840011
0.9765062448913462
1.166219343082094
1.4350198410806272
1.7746422317054042
2.010164033965057
1.7687318016565907
1.1141636557790715
0.2812258312131033
0.2723416909062754
0.2726489370025876
0.2781404493419658
0.2927129424577369
0.3202599783261035
0.3618865242956561
0.4197670556665213
0.498324492817189
0.6001493726678323
0.7226708279646086
0.8640846097149095
1.0215063721304982
1.2376236082687464
1.543498052220282
1.8871647292715377
2.0203704462839696
1.678435265176617
1.0160400649728034
0.2751347913588189
0.2673836954105423
0.2691240855964663
0.2764150971774416
0.2928181644239104
0.3228463343907257
0.3679136895867546
0.4280992799592898
0.510498834169228
0.6172285882319918
0.7480109068652568
0.9002583857902534
1.06893610732531
1.3031125168719322
1.6403297347114285
1.9930525211583865
2.036769843656499
1.5899043300717608
0.9309641064331176
0.2692626699881111
0.26246703685743
0.2653612980143537
0.2745170874353002
0.293279957823543
0.3249118699749871
0.3717226946279163
0.4341781902031051
0.5203153689623101
0.6331857928970978
0.7737493352248082
0.933394068654026
1.1196580712274158
1.378902301059556
1.7467121060987614
2.107021655214232
2.087169707625282
1.5473297289625734
0.875986517686525
0.2639812155725363
0.2578243982516015
0.2623764287160408
0.2730805914678064
0.293384944893471
0.32639749779709
0.3744992195711474
0.4406966464873945
0.5314388549393698
0.6510124079738768
0.7958172309923152
0.9616696676095547
1.168797570959154
1.4505799826878398
1.835508747032048
2.170146478484213
2.088265170475625
1.500622990176277
0.8398492906953621
0.2589127791451614
0.2533007436230499
0.2598451197773215
0.2719540574438769
0.2933685236323533
0.3281052411632321
0.3785777511903343
0.4489096475863963
0.5421182580081448
0.6658310658243044
0.8170958685320122
0.9950329947317972
1.2206162546936865
1.5111435735257843
1.9082245082179892
2.1759158602934128
2.0123361522450485
1.4273560426779206
0.8025581799783859
0.2535426333353586
0.2493608809836117
0.2571856073984766
0.2704493232345795
0.2932166857156262
0.3297387481147935
0.3825939264530971
0.4570011407529493
0.5524993746047677
0.6787785480321704
0.8363886755813578
1.023474397589963
1.2565668782619082
1.564958033186952
1.989073078571012
2.186125992443116
1.937786124228116
1.357341249895493
0.7698192803953258
0.2480239698922768
0.2451675033348677
0.2544562379458737
0.2690621563192464
0.2937400698998713
0.3318277637688053
0.3864669087280749
0.4642708692263031
0.5643820855665287
0.6951784671869179
0.8558793510966957
1.0479072827492446
1.2872527389512782
1.6237294811760603
2.0657302031540272
2.2200599953664195
1.922297348338696
1.3142567463499852
0.742331726804745
0.2425167397688846
0.2411569607857049
0.2526698739645954
0.2681386939343282
0.2946730649877896
0.3343912643921192
0.3902360047236768
0.4692554545494155
0.5730791785249282
0.7099156704180629
0.8761030210111619
1.0743578850942943
1.3244451336977894
1.6862713841119972
2.1301021832894325
2.263190576035172
1.9278234620294092
1.2849322822119074
0.7298554449570535
0.2382468962645944
0.23842158285293
0.2514958510634378
0.2676119995681591
0.2953850023065179
0.3363575351790142
0.3935849389520324
0.4734441086487282
0.580020280277349
0.719450216245063
0.8880286320833797
1.0951092876420054
1.3539584174894657
1.737452624612807
2.176875796688896
2.287828233201929
1.9356816277748163
1.264467459484229
0.7158893860613682
0.2348808200674813
0.235801415334228
0.2498023023644785
0.2675317493860829
0.2964416855229407
0.3386562011138033
0.3963043395849122
0.4772577367529334
0.5894674416706303
0.7310103826739801
0.9005071740140181
1.1150290599981088
1.3757606757804224
1.7730458741635344
2.214534271101968
2.3131290936248257
1.9440578176818355
1.247195856905544
0.6987903862069684
0.2318600027228913
0.2330291962043321
0.2481105136474919
0.267486040549853
0.2971832600275529
0.340580511829297
0.3987592106681745
0.4819447166388904
0.5985948657101523
0.742148933687882
0.916398341453237
1.13265285028148
1.3929305145250732
1.8075382877819213
2.2619194928529374
2.340650401142589
1.9380356463518515
1.236296578110891
0.6930914767128112
0.2293471316339599
0.2307794934030468
0.2467960256737441
0.2670565665543083
0.2968881965624063
0.3416766306731499
0.4013534692721935
0.486691769862246
0.6057548470894241
0.7497539539551671
0.9253195671906436
1.1459382082125893
1.4160517840514195
1.842222793062332
2.297283954699632
2.356922840583146
1.9351332865478896
1.235045018300884
0.6936386599886982
0.2264849765436874
0.2290485241506608
0.2457173356451244
0.2665395986489316
0.296785982099031
0.342856420149942
0.4037212980182461