/*--------------------------------*- C++ -*----------------------------------*\
| =========                 |                                                 |
| \\      /  F ield         | OpenFOAM: The Open Source CFD Toolbox           |
|  \\    /   O peration     | Version:  2112                                  |
|   \\  /    A nd           | Website:  www.openfoam.com                      |
|    \\/     M anipulation  |                                                 |
\*---------------------------------------------------------------------------*/
FoamFile
{
    version     2.0;
    format      ascii;
    arch        "LSB;label=32;scalar=64";
    class       volSymmTensorField;
    location    "0.003";
    object      tauij_LES;
}
// * * * * * * * * * * * * * * * * * * * * * * * * * * * * * * * * * * * * * // 
 
dimensions      [0 2 -2 0 0 0 0];
 
internalField   nonuniform List<symmTensor> 
13597
(
( 0.2000553617040135 0.0696431487739196 -0.009466199881961 0.1333914368666756 0.0571600930833554 0.190504514243155 )
( 0.2053425055716211 0.0720257687649474 -0.0109962504431791 0.137614100877784 0.0573100155142649 0.1812860862790008 )
( 0.2148640906387412 0.0757949182875897 -0.0138846952769222 0.1451249057894396 0.0585959100793066 0.166217629049816 )
( 0.2273822040470435 0.0804022070122263 -0.0167076974254639 0.1559849426228813 0.0611568542339703 0.1530418170434223 )
( 0.2379826164979968 0.0848676102544862 -0.0189689922089365 0.1660295355408463 0.0631295211098522 0.1451105067361108 )
( 0.2468242965631668 0.0888545950979862 -0.0206321823301913 0.1745632450779072 0.064123088850818 0.1398274932364956 )
( 0.2555120169162089 0.0925651159182572 -0.0222700102451863 0.1820969443384602 0.0648347820824729 0.1361024095991062 )
( 0.2639505111485711 0.0966144893776361 -0.0240875074760603 0.1883802317111186 0.0651894598706264 0.1326013303744909 )
( 0.2726501321830493 0.1008137655324214 -0.0254659484608939 0.1938486474105439 0.0654949996333623 0.1298293787850079 )
( 0.2810550188217545 0.1045592806762746 -0.0270778293301515 0.1978671576516583 0.0652951798471745 0.1268938868666108 )
( 0.2895467130125169 0.1083386644998831 -0.0282813849175582 0.2008538816314982 0.0643713112939728 0.1233477513314142 )
( 0.2983654782370083 0.1121146152993222 -0.0289722350179422 0.2024437465898326 0.0630179828745913 0.1201244315801568 )
( 0.3059861993551519 0.1155187881765865 -0.0296883321460747 0.2018724536279678 0.0612974343378463 0.1162030057112907 )
( 0.3131000047408929 0.1189901617171064 -0.0301383746185602 0.2004661840265313 0.0590292913517793 0.1115573593600555 )
( 0.3202591103918841 0.1222763081157667 -0.030520783125887 0.1986494256486841 0.0561791058800692 0.1070862620008783 )
( 0.3270441790464736 0.1256130093095945 -0.030750798824785 0.1959675970653265 0.0528611468971273 0.1023571018574258 )
( 0.3328664745753626 0.1286249661839514 -0.0306653398101176 0.192317179612846 0.0489855972552895 0.0970505591638511 )
( 0.3367386007608486 0.1307530625498253 -0.0301596535515052 0.1878435431097836 0.0451394583301938 0.0915772187612066 )
( 0.3409637087082529 0.1332376932868121 -0.0297016946035466 0.1833227186645584 0.0411727036011603 0.0859510172075302 )
( 0.2134408765616521 0.0827984691249211 -0.0138948665615317 0.1485666699733771 0.0466774937975404 0.1777303163616465 )
( 0.2204730855286626 0.0868965298907128 -0.0167519130713565 0.1543038072165374 0.0452175323105945 0.16669868750263 )
( 0.2319121290063423 0.0916907436540611 -0.0204400133671861 0.1647343151840538 0.0450003427743908 0.1481339384760726 )
( 0.2460446578509328 0.0971898352754307 -0.0217848102747882 0.1787642199257015 0.0456651672078577 0.1337637313394515 )
( 0.2560264732533458 0.1014962821479719 -0.0228675437137434 0.1896909932532765 0.0455540477315256 0.125381891129806 )
( 0.2641304009525627 0.1049802857524082 -0.0231202332278428 0.1992109624356663 0.0450895538144812 0.1191402355307569 )
( 0.2706634341316587 0.1079765450853185 -0.0228667021293128 0.2074390927692957 0.0443947004051147 0.1144035031351228 )
( 0.2766528705165151 0.1104009947425452 -0.0226535837146017 0.2144488684152034 0.043013748169507 0.1107592262271827 )
( 0.2829917143896276 0.1124971561569872 -0.0215540975449305 0.2199917093370037 0.0415619993693176 0.10818133750204 )
( 0.2873951583423868 0.1138291721797064 -0.0204836803652812 0.223890318842846 0.0394890872343775 0.1056353302683755 )
( 0.289929571951069 0.1144512014534817 -0.0194658434549617 0.2269107641697509 0.0364510462185186 0.1034120954502013 )
( 0.2914754941689153 0.1148854814811843 -0.0183640221198538 0.2292470691668106 0.0324380940356362 0.1015885313449589 )
( 0.2906656946871355 0.1143559388338467 -0.0176464777348738 0.2300977351110676 0.0279204711804577 0.1000802530839203 )
( 0.288567299717743 0.1136972932858232 -0.0172794612846853 0.2301999512127299 0.0232534389099589 0.0990272843470013 )
( 0.2863978904864182 0.1137230172799443 -0.0169034053991172 0.2303777145108305 0.0183130660304339 0.0982059070291133 )
( 0.2835667786402767 0.1139310148416394 -0.0169922773288047 0.2301301893561208 0.0132904783789187 0.0969932951041162 )
( 0.2804902575285584 0.1140637153982682 -0.0172596744038671 0.229588659378889 0.0085647889568159 0.095533245368126 )
( 0.2764302255981086 0.1138112903687375 -0.017543598042453 0.2287283074647918 0.0041928809570123 0.0943752260433243 )
( 0.273023774057948 0.1144924461869203 -0.0176731257754952 0.2277431062915942 0.0004473983810745 0.0933446364760971 )
( 0.2248632664280175 0.0947240397481655 -0.0198789956039045 0.1609950588308009 0.0380878526638057 0.1719760282523602 )
( 0.2326639661312761 0.0986543928160595 -0.0231470760388123 0.1679637294313579 0.0358270328309491 0.1600905781118476 )
( 0.2441671306126037 0.1021853308769538 -0.0248365019637542 0.1798311703000944 0.0344253001055235 0.1393291614356089 )
( 0.2558141053426734 0.1052114404174972 -0.0235248886014089 0.1939372707308164 0.0338279918171403 0.1243835587759705 )
( 0.2619265936286769 0.1060949866659647 -0.0228995188932239 0.2033179081787053 0.0324610152510691 0.1171393257100405 )
( 0.2660365763445206 0.1056293462144972 -0.0214708709776597 0.2113674265121729 0.0309176104167045 0.1127997991055046 )
( 0.2670961622997068 0.1041345321962985 -0.0197937777432721 0.2180563987904313 0.0285251170188655 0.1096114927561168 )
( 0.2656648000364399 0.1015687095745392 -0.0184256149469409 0.2234013414463196 0.0248884617910781 0.1083363655477438 )
( 0.2636853841188049 0.0983249765378667 -0.0169997257327367 0.2278332837714557 0.0207075715931682 0.108741169807074 )
( 0.2596331578868948 0.0948756805368109 -0.0158491608907596 0.2318706477436252 0.0156033102060213 0.1095162052015736 )
( 0.252401402277966 0.0910514215230065 -0.015567029586018 0.2350905755568718 0.0095974384556737 0.1113987882354273 )
( 0.2447513688622816 0.0874859905877641 -0.0155862322066668 0.2387082039614747 0.0026812335243191 0.1142095692531946 )
( 0.2367498764431039 0.0842461399538279 -0.0163119511846248 0.2427267328962243 -0.0045882196018242 0.1175281417183533 )
( 0.2286637992864891 0.0820782509856085 -0.0177559566119712 0.2467096260309548 -0.0112973405414926 0.1206424474272471 )
( 0.222306546652533 0.0815387501335751 -0.0187878239594834 0.2506016555293361 -0.0169562153224046 0.1231481845297075 )
( 0.2170911530254165 0.0817916744439685 -0.0194595146023006 0.2542461293873488 -0.0215580514626347 0.1252035960322519 )
( 0.2126516213041704 0.0826254921454684 -0.0198530486913137 0.2575580378067812 -0.0252734051450847 0.127183887833967 )
( 0.2091122992381536 0.0841299975985677 -0.0198767822349127 0.2602718650125408 -0.0280278720862095 0.1292441745385034 )
( 0.2067165781721391 0.086823310557511 -0.0192988712954798 0.2626444975394261 -0.0297771625066251 0.1308370821565262 )
( 0.2330475192123195 0.1026348340613331 -0.0263480223632448 0.1699361098990584 0.0311257557154746 0.1697314972270533 )
( 0.2400309452604837 0.1045278381312148 -0.0296144316448627 0.1770758934722616 0.0283984734954588 0.1566325829762511 )
( 0.248903532776474 0.1038259533545108 -0.0297356414895328 0.1877942393502896 0.0261590134314478 0.1363633154802093 )
( 0.2545022205349269 0.1007535776063551 -0.0268484575005393 0.1987001969832987 0.0244094051474549 0.1239423110020347 )
( 0.2534050451295016 0.0958344890147963 -0.0247177165773917 0.2054266371901559 0.0217761737836955 0.1195365120764154 )
( 0.2494630784977716 0.0896717313656428 -0.0222770336348647 0.2110348397884953 0.0187286963894771 0.1182498751406659 )
( 0.243431365191877 0.082600433268778 -0.0201971933501291 0.2157673410817682 0.0144547629536094 0.1188673062198336 )
( 0.2352838533287515 0.0757329607741139 -0.0181535658392409 0.220229788466701 0.0088320685960761 0.1213013012375646 )
( 0.2265888939112051 0.0698467733625576 -0.0169249104162416 0.2253394448680317 0.0026048944480961 0.1251713629604101 )
( 0.2182063224688786 0.0649492323202964 -0.0161588169166751 0.2317899143351324 -0.0046667591268776 0.1297100178298664 )
( 0.2089864318130566 0.061079902661395 -0.0160667206065835 0.2386692618624577 -0.012617196823414 0.1344556765834762 )
( 0.2009348982878202 0.0594360619051175 -0.0160766892005248 0.2469407282864396 -0.0200300884391889 0.1393259775022775 )
( 0.1954449326657604 0.0602980091945692 -0.0157972427255696 0.2556987712996819 -0.0267198800840786 0.1432398354041133 )
( 0.1922110185238991 0.063090291403803 -0.0150305314287467 0.2648080181196535 -0.0321955289768864 0.1474536772132211 )
( 0.1909426516468447 0.066998219408977 -0.0131244766309497 0.2732071469887149 -0.0357981155704682 0.1514054099534364 )
( 0.1910454805114715 0.0718035266295099 -0.0109153305802708 0.2803033084861139 -0.038381313650412 0.1544384331790062 )
( 0.1919600815070784 0.0771924619568266 -0.0083309993006282 0.2864938144646207 -0.0399302323726479 0.1574597327496277 )
( 0.1941438571913274 0.083280654355677 -0.0052538240510246 0.2921259905618708 -0.0406846632867499 0.1606645219173629 )
( 0.1972019145852301 0.0905630861941352 -0.0020246891897341 0.2971442084793042 -0.0408696097220592 0.1639205864603795 )
( 0.2368372433101104 0.1050774593260222 -0.0342331950181921 0.1757796925485735 0.0255004647765197 0.1691988211536733 )
( 0.2402617300012441 0.1027379163651636 -0.0362371869454713 0.1807895943678205 0.0227434668571995 0.1555460376139426 )
( 0.2428841489953827 0.0960584043336702 -0.0339249170839334 0.18860907002247 0.020127883167842 0.1376197212584839 )
( 0.2406549292516868 0.0870722663144945 -0.0286256604488916 0.1962370726155521 0.0170842810822793 0.1288382883834085 )
( 0.2325668656728532 0.077549648504331 -0.0241793870743228 0.200253533701126 0.013521340018546 0.1274083607090699 )
( 0.2238419539857668 0.0682439175393671 -0.0199061451260881 0.2043029056342777 0.0090968368297976 0.1285318050509995 )
( 0.2142916761685748 0.0594733179249069 -0.0159762334326417 0.2092245073211308 0.0033894620396886 0.1317951479149055 )
( 0.2041016652460021 0.0525463548785519 -0.0125441362247653 0.2149060919810538 -0.0029631466516613 0.1366470886262034 )
( 0.1963697497308925 0.0487347761033452 -0.0102032322899249 0.2225639822245977 -0.0102335706747352 0.1415856025689731 )
( 0.1908216438684149 0.0473481423792112 -0.008180390069704 0.2330072818654736 -0.018184881040879 0.1474511649427636 )
( 0.1873202851837904 0.0489586814011638 -0.005996880653056 0.2461289559608371 -0.0262680667749317 0.1537338338149491 )
( 0.1859469370306549 0.0541869826599117 -0.0028734869858304 0.2606428281093432 -0.0329164375651759 0.1596060518330675 )
( 0.187126773095363 0.062357460496489 0.0008495435337526 0.2750963436687262 -0.0376987529558475 0.1648877064332638 )
( 0.1906537373506427 0.0721811929224996 0.0047265806985697 0.2889266954565329 -0.0413056090850116 0.170650870931944 )
( 0.1949692736476161 0.0818511937830613 0.0091678897843051 0.3004593396503071 -0.0433994918213537 0.1760172199835204 )
( 0.1999165741684302 0.0921139650406881 0.0133663806641177 0.31029152499626 -0.0447795281810719 0.1806676238166433 )
( 0.2054389160650382 0.1029523264823492 0.016975381647826 0.3189598930694433 -0.0456744686937591 0.1849551951122037 )
( 0.2119407762813936 0.113909696937148 0.020141709453181 0.3265011014018211 -0.0463799425795745 0.1888802361424665 )
( 0.2191462662407297 0.1259458335582163 0.0225269710930175 0.3329926208022147 -0.0470771945300558 0.1928796423706302 )
( 0.2342298071722017 0.1018052762371843 -0.0402692899919535 0.1770861836233139 0.0213209138515431 0.1696925619782634 )
( 0.2320766532460581 0.0947228650474553 -0.0394822234311912 0.1792142625081584 0.0186041906177661 0.1552869615601664 )
( 0.2271923165960741 0.0824542408867022 -0.0326699531369774 0.1834056177674055 0.0162087377585915 0.1396077553073809 )
( 0.2190617290903156 0.0700745871596982 -0.0238864670041412 0.1882588675680459 0.0124088013724848 0.1338843730031727 )
( 0.208709860197998 0.0596200812156025 -0.0167529723594453 0.1912078939207016 0.0081878745691301 0.1339259432366921 )
( 0.2007646292067329 0.0507602428784466 -0.0105134168689614 0.1957520692160448 0.0029177181986642 0.1365806090554239 )
( 0.1934220134714884 0.0446283357937261 -0.0048773381431623 0.2026898441997996 -0.0038841569899403 0.1410252379777984 )
( 0.1868537668860097 0.0418013249804643 0.0001759479249728 0.2117198539730431 -0.010921769837076 0.1469922200259926 )
( 0.1839379834852552 0.043303222627817 0.0048527651195677 0.2241409168060841 -0.018550179661792 0.1531678035496737 )
( 0.1839008506906407 0.0491182598401544 0.009318604483819 0.2406510386802124 -0.0266331868696917 0.1604031437298046 )
( 0.1865451871287586 0.0582959212897505 0.0136112773637682 0.2596410578178016 -0.033956016895784 0.1681346884338757 )
( 0.1913739525456953 0.0712026828952373 0.01856994862402 0.2792811302703727 -0.0394937483944302 0.1749936615267188 )
( 0.1980988104258885 0.0867710067668538 0.0232509993133447 0.2986385770523254 -0.0434224913081687 0.1819157298381652 )
( 0.2058895265807162 0.1026579144119179 0.0266988443586216 0.3154119582902023 -0.0465277308195407 0.1888871476576951 )
( 0.2137744009565604 0.118053616268016 0.0295798240395191 0.3292043357648663 -0.0492379235175072 0.1951728418941026 )
( 0.221590451501459 0.1326977174265745 0.0316048383199451 0.3405778900342373 -0.0513715174030996 0.2006405251819065 )
( 0.2298086107415419 0.1470225861031495 0.0324723112948038 0.350280939136429 -0.0533946203531291 0.2061695949458306 )
( 0.2383762891843935 0.1612077202642935 0.0320645713897064 0.3584061612023766 -0.0554615343764606 0.2111026674744726 )
( 0.2477364057138258 0.1761370583816104 0.0305532789091146 0.3654250973244666 -0.0575483725348659 0.2158398496719531 )
( 0.2233079244933417 0.0938000022646705 -0.0414774619309321 0.1736568899775031 0.017905232157792 0.1690882611330554 )
( 0.216635422259132 0.0831740181259781 -0.0358194577831422 0.1734516134626373 0.0159120451842875 0.1538400721145966 )
( 0.208828095944154 0.0685627999769157 -0.0247223225235448 0.1756200875065106 0.0134971700944159 0.1401026235777841 )
( 0.1999226319744093 0.0556852644275543 -0.0133903284580865 0.1786804837547604 0.0091725465711494 0.1361272316016466 )
( 0.1924671672957453 0.0470791614685382 -0.0042649995448067 0.1823410436094296 0.0041049750628111 0.1366942780738999 )
( 0.1872288615603356 0.041706259106196 0.0035755869272827 0.1884502168167307 -0.0022323620183682 0.1401516717746982 )
( 0.1830225014811274 0.0404414345107164 0.0107281717314469 0.1981327243894326 -0.0093807942913642 0.1455240787444749 )
( 0.1814603908151425 0.0440322785894306 0.0170079553575101 0.2125067148970583 -0.0171460784361342 0.1527640404101083 )
( 0.1833331577055713 0.0524960996608428 0.0230540400396434 0.2306055469495923 -0.0250971586431135 0.1603576947683834 )
( 0.1879376456337584 0.0653387035469825 0.028252016166827 0.2525575466672843 -0.032546519605005 0.168969572043895 )
( 0.1946558752025612 0.0820176070402746 0.0320315639382938 0.2769888375494648 -0.0393125200841218 0.1783527813222656 )
( 0.2035843607513162 0.1019798767240987 0.0351582893446817 0.3014457576489329 -0.0451514550739683 0.1871649442302257 )
( 0.2140666703155561 0.12257511025049 0.0370029620472116 0.3236373304722311 -0.0499005640692558 0.1961666047406835 )
( 0.2246210780824065 0.1422795701659887 0.0371493125081981 0.3417788540953426 -0.0540200978681899 0.2049423244494992 )
( 0.2350188626293123 0.1613195323735814 0.0364508548587264 0.3573760249342453 -0.0578736448867697 0.2128257574487362 )
( 0.2450362036365252 0.1788921855139033 0.0347388698902855 0.3702322118731362 -0.0610147671178997 0.2195485154472593 )
( 0.2547581727115131 0.1955239556719746 0.0320586896478682 0.3806895596854405 -0.0639666046639643 0.22613956365288 )
( 0.2653415551177722 0.2126289183174363 0.0283760345593351 0.3899086135903741 -0.0665765605089731 0.2326122386161545 )
( 0.2769074592713003 0.2301356907332457 0.0237877856340394 0.3978642695669948 -0.0687779118236348 0.2383456617278919 )
( 0.2095747636222796 0.0834607888364978 -0.0378645330416357 0.1679393840503641 0.015504186900135 0.1668138946903495 )
( 0.2014104942075665 0.0709997421249315 -0.0271114641777532 0.1657851981273392 0.0142317480388202 0.1505710804441633 )
( 0.1946047072245041 0.0570636311174258 -0.0124999933965882 0.1674077793861712 0.0112431508262979 0.137924726551626 )
( 0.1879260147077314 0.0466982960896388 0.0005046426830777 0.1703909703768065 0.0061869037069727 0.1349262791968619 )
( 0.1836917154542943 0.0415856886970563 0.0108325768948838 0.1749886089192149 0.0004435199232125 0.1361372524519293 )
( 0.1814633796845157 0.0409500891456151 0.0196099679085583 0.1839462874541824 -0.0063890605516699 0.140401276613914 )
( 0.1806869952188143 0.0460025998533747 0.0272936508520583 0.1987447784384723 -0.0141002585275275 0.1463978807552733 )
( 0.1826261781360499 0.0558515064711865 0.0330773096405976 0.2181699720482341 -0.022396246057977 0.155779578782943 )
( 0.1879777726992395 0.0704299561727637 0.0377502322114821 0.2414295896481543 -0.0309047933060332 0.1664787165656001 )
( 0.1954808892974731 0.0896047275122727 0.0409517457262934 0.2687240065457946 -0.0388138766483265 0.1769593846919477 )
( 0.205486891178692 0.1128368438138906 0.0423829757618726 0.2976549727931034 -0.0458868711564553 0.1890735945550615 )
( 0.2181216182292951 0.1379122001321646 0.0420723717058031 0.3253547985327865 -0.0522157014027064 0.2011442497325964 )
( 0.2305880828399528 0.1614805968688574 0.0394761008886945 0.3498340141366379 -0.0582606772132629 0.2120003467966654 )
( 0.2426783645918964 0.1837991754420008 0.035680869268886 0.3705102100365409 -0.0638344906190848 0.2220143080845429 )
( 0.2545654806038576 0.2048105431027445 0.031641253391113 0.3873624862079105 -0.0680017926455056 0.2305889029772463 )
( 0.266541273625731 0.2249219896547888 0.0271156339511276 0.4016570845680356 -0.0709831357579052 0.2383738571223695 )
( 0.2787777215993542 0.2446944126253022 0.0221800472084345 0.4142524588732523 -0.073581771095725 0.2457844325435663 )
( 0.2925753618171735 0.2650474824494562 0.0168516736622434 0.4255581795107003 -0.0754864452119092 0.2528151289731944 )
( 0.3078881858908928 0.2855432363609095 0.0112976769723012 0.4352073488837303 -0.0766603959881667 0.2581535220200419 )
( 0.1964719479492412 0.0725637521672472 -0.0290889195398594 0.1606168095413137 0.0139945161079358 0.1614119474451504 )
( 0.1892227581850697 0.0604730862726954 -0.0148591757816844 0.1571922339290342 0.0128905938044404 0.1435989955759841 )
( 0.1848937030071817 0.0490159572467496 0.0014616113800469 0.1583639876152066 0.0093914127035085 0.1321060951700244 )
( 0.1813691771010148 0.042749500457185 0.0151308513772846 0.16226671552553 0.0037245433019724 0.1304015186126108 )
( 0.1797264965505272 0.0420004728552842 0.0259107644169767 0.1697880496927208 -0.0026165145998037 0.1331653241065022 )
( 0.1798506288936535 0.0461602616417805 0.0338354557756568 0.1830567376270635 -0.0101419854536593 0.1393791726729782 )
( 0.1817860437610849 0.0566437018350759 0.0400277506861445 0.2026207549620209 -0.0186871044499519 0.1477287880839766 )
( 0.1865526301814641 0.0720800002237732 0.0440526957676414 0.2269119644607938 -0.0277160978089975 0.1597693067220772 )
( 0.1941403859904952 0.0921368457017396 0.0461742958639247 0.2553905691215082 -0.0366919925931184 0.1738534418104201 )
( 0.2040284557226743 0.1168391788550745 0.0460918254777129 0.2883564950176366 -0.0460040627391616 0.1878830166583745 )
( 0.2167278480239102 0.1443648918986143 0.0439290702325423 0.3211724336463786 -0.0539859582294219 0.2020020343365019 )
( 0.2310668131031409 0.1722018731371284 0.040235655236812 0.351092722646409 -0.0605670515254951 0.2164628845324228 )
( 0.245111796664185 0.1989697563583479 0.0340614485534805 0.3782764868977548 -0.0670572539104256 0.2283473223063863 )
( 0.2590827285104999 0.2243368059477431 0.0274335579145589 0.4020421653619773 -0.072605377604228 0.2390296558622303 )
( 0.2729356329176748 0.2477213502328299 0.0216140594500768 0.4212516291471037 -0.0764104129073687 0.2484754100197144 )
( 0.2875555775250937 0.2708770139435134 0.0157470664156226 0.4381331153786546 -0.0785923893377252 0.2561796247482025 )
( 0.3030689052784053 0.2939231733813196 0.0099049231999627 0.4539272665142059 -0.0802020596365138 0.2628524969837348 )
( 0.3211492109058824 0.3177668660678928 0.0040854185719445 0.468311126396334 -0.0810691967791003 0.2681085397283453 )
( 0.3425658191383376 0.3427617703232634 -0.0016315476721123 0.4808413036551293 -0.0810020507163104 0.2712402300086338 )
( 0.1868205674816269 0.0627262638230472 -0.0159209252848995 0.1531251087949936 0.0138001777906833 0.1529476565000794 )
( 0.1820991163364964 0.0526279615143748 -0.0006138978728839 0.1493469610643716 0.0121564837035935 0.1342414927023118 )
( 0.1790127613785316 0.0447736834458409 0.0155344390731826 0.1505290766315417 0.0078953810006474 0.1243366273192376 )
( 0.1779502195021715 0.0428199459425287 0.0287353473142689 0.1564307825913503 0.0017552459853687 0.1245223411785431 )
( 0.1784204110416017 0.0464791163095713 0.0378821861165392 0.1681743973000987 -0.005646350184718 0.1299692103829043 )
( 0.1801842295395845 0.0553387441692883 0.0439743563128031 0.1854682393471097 -0.0144412714347458 0.1394340290266623 )
( 0.1840897365138974 0.0703420494822818 0.0479659838182096 0.2085275151674274 -0.0237515453917238 0.151396525284156 )
( 0.1910347249334623 0.0910143218936584 0.0493711666743299 0.2382309216730192 -0.0336280596570126 0.1666515603613514 )
( 0.2004180190870103 0.1156421771776234 0.0486777155572943 0.2716455909640174 -0.0429443286714195 0.1831546862690804 )
( 0.2121765527464873 0.1438615300574633 0.0454228746603975 0.3084056230293851 -0.0524811371704363 0.1994158934212006 )
( 0.2260604492946714 0.1740131641590997 0.0396314279539333 0.3459752091163566 -0.0616487360054991 0.2153809878018899 )
( 0.2408896934051652 0.204151106995857 0.0326450835047846 0.3802703682835269 -0.0691799098107364 0.230771732506256 )
( 0.2568687102411955 0.2339027172610885 0.0250884792932798 0.4103941361449338 -0.0749934721206108 0.2438562884779983 )
( 0.2732925042577352 0.2620881604865153 0.0176083449233105 0.436980161537819 -0.0793453782336353 0.2545145059562888 )
( 0.2900729785134757 0.288818559620184 0.0108090147448013 0.4600573682751624 -0.0821317572540231 0.2629807259144245 )
( 0.3083680300195602 0.3158196029394828 0.0045014889726728 0.481390780355896 -0.0834744456429134 0.2695532346190133 )
( 0.3286898684330925 0.3435501073069084 -0.001595841792661 0.5019760025650701 -0.0843568358886674 0.2743129029542926 )
( 0.3530957774272539 0.3726350164943849 -0.0077900441133709 0.5207330367680855 -0.0846184066788014 0.2765595089290362 )
( 0.3832985830118104 0.4038646841399458 -0.0136876210809708 0.5367346602288156 -0.083530384935591 0.2763016271814154 )
( 0.180616765071684 0.05560615757725 -0.0028452560501293 0.1468523629358582 0.0133738027119838 0.141991026576363 )
( 0.1782195629682849 0.04825821487091 0.0124338150717319 0.1433165477953919 0.0113156453110453 0.1234951339119516 )
( 0.1761423962774015 0.0438696946294488 0.0281913298606576 0.1453927717582882 0.0065616609406765 0.1162993372799236 )
( 0.1757134961695846 0.0457553363679409 0.038979576720648 0.1536601589297436 -0.0004663196731239 0.1195420217407991 )
( 0.1768545296443703 0.0536903144660807 0.0456749938466211 0.1682144193799315 -0.0090137576929289 0.12812519469011 )
( 0.1798213392037254 0.0668985944809355 0.0499368692102598 0.1897020950096909 -0.0187875953345898 0.1414088390408953 )
( 0.1857827699919402 0.0854378160761352 0.0513554363918924 0.2173417557947261 -0.0292407263011796 0.1573607210195969 )
( 0.1943742186226736 0.1095183727328255 0.0501678141266334 0.2511864601236554 -0.0396549686215563 0.1759253958193189 )
( 0.2052264275797001 0.1375968425559813 0.0467743991096142 0.2894584792700116 -0.0496308266680722 0.194791994368352 )
( 0.2179735795303638 0.1681986291688458 0.0407763458897206 0.3299564723130284 -0.0589232128397415 0.2118180905324148 )
( 0.2326468544435945 0.2004366354687011 0.0329112181330403 0.3716421254150879 -0.0679536691989244 0.2286552699352949 )
( 0.2493469027074723 0.2340277837023306 0.024012740539157 0.411761897657856 -0.0758023599348369 0.2442091046536386 )
( 0.2671809238323712 0.2663076698713888 0.0159654357975075 0.4457578691919402 -0.0807868775034734 0.2568590586887991 )
( 0.2863297694287787 0.2976535053769157 0.0082820019863792 0.4765464070739061 -0.0842865700855563 0.2664315326636544 )
( 0.3071080227094169 0.3292931784398419 0.0008364402388777 0.505824031858923 -0.0863307750736595 0.2726190343526054 )
( 0.33026429449246 0.3616417002006391 -0.005750254501019 0.533410616846545 -0.0872456092066292 0.2770645105520609 )
( 0.3577280621026725 0.3959728025763416 -0.0120891026794201 0.5600886939004702 -0.0874140616510064 0.2791343812548962 )
( 0.3908651625017564 0.4320977816660036 -0.0183292009276948 0.583698548002465 -0.086534455604539 0.2782461966925603 )
( 0.4323870847398336 0.4715816556886764 -0.0242658535523201 0.6039259925968405 -0.0843149017558344 0.2749829607418825 )
( 0.1763402944892777 0.0505880818111175 0.0088082856260691 0.1412017099093026 0.012209687429751 0.1290624469878941 )
( 0.1760447977544391 0.0458522917768857 0.0237739212348242 0.1387285040409271 0.0101787778672997 0.1120284909261585 )
( 0.1751057281332432 0.0452080286443727 0.0375601171576348 0.1429596919741868 0.0043977899169714 0.1093577471893765 )
( 0.1743316406085665 0.0506011929844103 0.0455391849345398 0.1533384233988531 -0.0035355803623293 0.1163356304043377 )
( 0.1759848733783132 0.0617888946780044 0.0499140512507444 0.170501553184165 -0.012878791650891 0.1285852750709283 )
( 0.1797628439054419 0.0785291947354316 0.0516515014655814 0.1958490407831807 -0.0236581512053252 0.145595585005017 )
( 0.1867365603239325 0.1002333250363189 0.0511684832181809 0.2280976350331364 -0.0345700228959373 0.1656633515936857 )
( 0.1958727135114115 0.1268885205501048 0.0479726224435286 0.2665678304614162 -0.045399182310429 0.1870211833891755 )
( 0.207591037345286 0.1570688793994225 0.042363789605477 0.3095843284223118 -0.0559515678103765 0.2063693693198853 )
( 0.2210980512855281 0.1895769722134621 0.0344598042109698 0.3546644980635114 -0.0653487691758311 0.2240536622961774 )
( 0.2367640934846812 0.2242576644295653 0.0253012969883967 0.4006843987013149 -0.0739651510584453 0.2409807039009169 )
( 0.2555940062966333 0.2611328441653061 0.0160606879815453 0.4456806842895162 -0.0807208901542098 0.2557598680289494 )
( 0.2764396405040086 0.297565149601674 0.0074286935805421 0.4859750071218053 -0.0850220112787309 0.2663822185059479 )
( 0.3000663143252113 0.3342681490235906 -0.000597143433223 0.5236125912897657 -0.0879288530054912 0.2737826235560771 )
( 0.3258769229916129 0.371936171563842 -0.0081894255092098 0.5605389866639945 -0.0897140802745583 0.2783343575557725 )
( 0.3547202621618828 0.410355932579134 -0.014996466385396 0.5954002561955144 -0.0904173604812394 0.2802431666420777 )
( 0.3897284862686342 0.451538130021499 -0.0211786536887923 0.6281006002046801 -0.0895292561527543 0.2793508197186223 )
( 0.4340473495327927 0.4968144626450502 -0.0270523562131447 0.6574821686944547 -0.087282579925539 0.2759952389308908 )
( 0.489865356401916 0.546612675128726 -0.0333090481992345 0.6825610705516154 -0.0845843534077511 0.2704420505190251 )
( 0.1752815483660872 0.0469713511756095 0.018696854296021 0.1367861158059883 0.0116344036378215 0.1162021550232607 )
( 0.1741396690156553 0.0449124361739141 0.0316814469956245 0.1351720293474515 0.0089967766853748 0.1021817774292407 )
( 0.1730371487686554 0.0477326999048335 0.0429042514048912 0.1419059619447175 0.0017006401222309 0.1045541960249455 )
( 0.1731140262110095 0.0561229878745247 0.0487992282243956 0.1552196117080466 -0.0070312794724641 0.1155152721952285 )
( 0.1756852244314591 0.0703223703785825 0.0513319567666113 0.1756520736589271 -0.0170765236897817 0.13219647489024 )
( 0.1804450741150402 0.0900869262668042 0.0511607945572158 0.2043280761759882 -0.0282955824190172 0.1524688653741187 )
( 0.1875949074668754 0.1145399379931441 0.0490126363101258 0.2403637486785835 -0.0393731107035745 0.1748695667879179 )
( 0.1964699967345 0.1428216400447641 0.0440928803596952 0.283676254817282 -0.0509512896591534 0.1980047978966155 )
( 0.2079161001531241 0.1742062921628832 0.0366268968063992 0.3319126759843308 -0.0619104214715653 0.2176280157773664 )
( 0.222220922189389 0.2087094345187299 0.027806660152859 0.3815459527437799 -0.0709268339770868 0.2349938463211243 )
( 0.2397726414237406 0.2468654838816145 0.0179972982764523 0.4337099233650681 -0.0793512139775878 0.2516889917128216 )
( 0.2608878576417298 0.2874084020032664 0.0087182040181223 0.4848496360919475 -0.0849912439666543 0.2646634856612412 )
( 0.2853028339927808 0.32889510841689 -0.0002703907130926 0.5327615398732486 -0.0887885008387467 0.2732830754875381 )
( 0.3140069651387125 0.3723819825583627 -0.0086538504039015 0.579647772723313 -0.0912047944684644 0.2783359616274176 )
( 0.3451325894254741 0.415997937045447 -0.015736414903813 0.6239015445108359 -0.091979685021529 0.2802693676433147 )
( 0.3807209084517016 0.4610855993848751 -0.0223824463622317 0.6654779218092829 -0.091868712583094 0.2796664200473315 )
( 0.4253283641227733 0.5115435381213091 -0.028953875850096 0.7064672923874237 -0.0907597612876782 0.2767243950615067 )