/*--------------------------------*- C++ -*----------------------------------*\
| =========                 |                                                 |
| \\      /  F ield         | OpenFOAM: The Open Source CFD Toolbox           |
|  \\    /   O peration     | Version:  2112                                  |
|   \\  /    A nd           | Website:  www.openfoam.com                      |
|    \\/     M anipulation  |                                                 |
\*---------------------------------------------------------------------------*/
FoamFile
{
    version     2.0;
    format      ascii;
    arch        "LSB;label=32;scalar=64";
    class       volSymmTensorField;
    location    "0.0061";
    object      tauij_LES;
}
// * * * * * * * * * * * * * * * * * * * * * * * * * * * * * * * * * * * * * // 
 
dimensions      [0 2 -2 0 0 0 0];
 
internalField   nonuniform List<symmTensor> 
13597
(
( 0.1629076598824859 0.0359536793016353 -0.0199097395657532 0.0761974476909618 -0.0349624615532282 0.0903240054456131 )
( 0.1652469176552069 0.0366879646578798 -0.0212078418957711 0.0733582141976098 -0.0320808514748008 0.0855724656239758 )
( 0.1701961142200111 0.0362799592967718 -0.0220513405114862 0.0674011698117712 -0.0246673396877479 0.0760978842951938 )
( 0.1779875347039324 0.0347739714141783 -0.0213310151566097 0.0611142216111097 -0.0147997515077766 0.0680307811337813 )
( 0.1853233090310069 0.0324415832188266 -0.0191568113089878 0.0564676862143905 -0.0064098656653181 0.0656642711830315 )
( 0.190454626825044 0.0296468830455986 -0.0152035427378225 0.0527496027971076 0.0009088238052309 0.0665992020832312 )
( 0.194561851264761 0.0261936344197651 -0.0104345279853897 0.0496193830933293 0.0080579263634918 0.0691912284791927 )
( 0.1980355184633825 0.0219663743651718 -0.0048414670572607 0.047310541695669 0.0149249872730333 0.073568406439553 )
( 0.2007662630917559 0.0172528426809754 0.0011587877181621 0.0463468137881498 0.0213654469583194 0.0791455718476774 )
( 0.2017871533680698 0.0125183999718732 0.0067688944629168 0.0467564265881742 0.0270190063181574 0.0854287471087328 )
( 0.2017147903091602 0.0079580393205973 0.012582720705339 0.0489810031975767 0.0325526136082089 0.093088831166499 )
( 0.2016513975276124 0.0037108285425426 0.0172482711396817 0.0525812106956679 0.0372369499446781 0.1007753735936953 )
( 0.2003177405680021 -0.0001423958842421 0.0209591522072413 0.0567697509228276 0.0406348832164741 0.1074975822689368 )
( 0.1978917338802249 -0.0036339463851584 0.023693082980046 0.06229267927253 0.0435019671654003 0.1135374293423339 )
( 0.1948927486837293 -0.0063552239956511 0.0247341431596869 0.0687584965805955 0.0456246479742287 0.1186449568184454 )
( 0.1913618962231887 -0.0085427325004751 0.025337230715958 0.0753331398813297 0.0468465656458148 0.1232162907294278 )
( 0.1878884830945477 -0.0105116101961914 0.0255291930066167 0.0815901767950039 0.0472402206270146 0.1266666655451573 )
( 0.1837706849363324 -0.0113084042353481 0.0236513156750301 0.0869953655090621 0.0472466807073149 0.1288067274879722 )
( 0.179866873629819 -0.0115980978198287 0.0200960418616996 0.0914615231144611 0.0468974344159821 0.1299651424612808 )
( 0.1604785735907007 0.0420659124447977 -0.0213088275705445 0.0704966171329864 -0.0365800151620842 0.1083105941141258 )
( 0.1616504988900678 0.0434049767653453 -0.0212745442257143 0.0658753977360985 -0.0326428159311509 0.1046984986158962 )
( 0.1646385484931807 0.0444841910705288 -0.0183479937852416 0.0580176131832874 -0.0231825908726085 0.0947101520192335 )
( 0.1697453964810033 0.0446445220027705 -0.0127251065089881 0.0526100700905527 -0.0122197652019868 0.0882755666574155 )
( 0.172915679777074 0.04323996079991 -0.0067533134107939 0.0493080749667941 -0.004308985341643 0.0880090014513458 )
( 0.1740792836767157 0.0408514112603402 0.0007031732480134 0.0473430590809498 0.0029743165299338 0.0900970450416568 )
( 0.1746813627196313 0.0375851834363487 0.0080621190615876 0.0468697272681613 0.0097650896425047 0.0934505126318565 )
( 0.1739789023552721 0.0336950925525079 0.0154419489191746 0.0479695917404603 0.015695841873914 0.0987649210698444 )
( 0.172547936670777 0.0294143504547437 0.0227446497909232 0.0506156123748856 0.0212244930702972 0.1048801900306602 )
( 0.1691449308237136 0.0246912527542287 0.0285038992925325 0.0547744646493043 0.0260026738162734 0.1109764987047337 )
( 0.1642316466234475 0.0198041071815577 0.0326091190039236 0.0607382674808349 0.0305983222966627 0.1179641793569925 )
( 0.159508091038494 0.0146300686038806 0.0343254541587849 0.0677628531474236 0.034519614594326 0.1243747847087139 )
( 0.1539265880056085 0.010059783215538 0.0336849192514958 0.0747357265975531 0.0374148281847175 0.1298042686804753 )
( 0.1488129826199282 0.0059967983840087 0.0306702732383945 0.0817371218705343 0.0396857672614859 0.134599147766803 )
( 0.1453386026127164 0.002242134714918 0.026007111070294 0.0886171921324987 0.0413916995262397 0.1385454422248805 )
( 0.1418479616707304 -0.0006182857603885 0.0205361073494706 0.0947366347356024 0.0427594150604863 0.1424450725629807 )
( 0.1391564757958854 -0.0029789483849171 0.014607773227444 0.0992565544022099 0.0430670258252367 0.1455364017357172 )
( 0.1375290329521883 -0.0044083320987775 0.007116140025444 0.102612222910268 0.0426834690081016 0.1482840305868561 )
( 0.1365693248314236 -0.0049501919988996 -0.0009153728138726 0.1051816049063591 0.0420544672884487 0.1514793063923028 )
( 0.1521916331740155 0.0450886581231898 -0.019021904046427 0.0660081224073813 -0.0339932275361114 0.1230479229127705 )
( 0.1510517903104144 0.0467226750970022 -0.0158670434192802 0.0612601844697705 -0.0289689022907253 0.1201789807716754 )
( 0.1506943269816212 0.0484201760375338 -0.0076682654943032 0.0540266714963002 -0.0188299661622186 0.1115035626022565 )
( 0.1507227436128273 0.048258888437167 0.0022816167368676 0.0506098880535403 -0.008480264188435 0.1077037680506277 )
( 0.1485301568968895 0.0457231091003438 0.0104751142281787 0.0495841097574734 -0.0016430542645416 0.1100845010393531 )
( 0.1461175660394593 0.0416698237565693 0.0184606158742618 0.0499364614762614 0.0044975625062417 0.1141447678791933 )
( 0.1427338984883582 0.0363361515509027 0.0250080422406104 0.0519918550926051 0.0102737659928412 0.1185148846376287 )
( 0.1380880245292657 0.0305090718886994 0.0297852945049325 0.0558708852266268 0.0154322715879944 0.1241137242813099 )
( 0.1338122782345294 0.0244374939215498 0.0322713308176941 0.0609927061505305 0.0202650686864613 0.1297701285454688 )
( 0.1298017485551515 0.0178559437172866 0.0319943527560867 0.0671896667748183 0.0244207615796626 0.1350920201953603 )
( 0.1257325409743973 0.0115312272380589 0.0288285007857217 0.0741121370025991 0.02787200994212 0.1401674131682812 )
( 0.1228460163129989 0.0056542104756957 0.0225101183072104 0.0812503317095464 0.0310940649518611 0.144559216223393 )
( 0.120914229092307 0.0004628691407977 0.0132234271678732 0.0881275924751214 0.0338364873654033 0.1481542785355146 )
( 0.1201743038642238 -0.0035719764177532 0.0028403115692582 0.0938793083172606 0.0353662767368945 0.151058651714481 )
( 0.121197372591408 -0.0064520767988117 -0.0069185639520475 0.0982047822120966 0.0356840949324037 0.1535322824830723 )
( 0.1225353781118168 -0.0082601877616876 -0.0165002360858279 0.1015114762420955 0.0355307185607319 0.1561985166001818 )
( 0.1243448194961137 -0.0092847300273069 -0.025537993032147 0.1036212297944608 0.0343224398110741 0.1587501711559956 )
( 0.1272600449186964 -0.0095294127484836 -0.0346032666147984 0.1046612060222264 0.0320081494216941 0.161185513136591 )
( 0.1306372726797419 -0.0089274019703426 -0.0434564581157869 0.1052063566019046 0.0288052121346519 0.1638769310079635 )
( 0.1410891997957522 0.0456230154980648 -0.0110005440246512 0.0649334365431125 -0.0289566512933617 0.1331505457975672 )
( 0.1378694706518397 0.0471262761908415 -0.0040860742377782 0.0614772130432528 -0.0236723523823024 0.1310770457945724 )
( 0.1347043509347733 0.0473686326835977 0.0072549690892552 0.055794271034208 -0.0150817860792393 0.1259171266678481 )
( 0.1315106821330901 0.0445632996300122 0.0184247360123669 0.0540353804073424 -0.0064383969322071 0.1258997588341993 )
( 0.1273120512898829 0.0394021385730853 0.0259233087226033 0.0550504044518392 -0.0001322895960667 0.1304499914920627 )
( 0.1234899454317291 0.0329079623233427 0.0309227393058633 0.0572329090704859 0.0053583919887676 0.1357264424975536 )
( 0.1195254693932516 0.0255294768115809 0.0329484815166038 0.0607418983780847 0.0104042686713682 0.1409689600512123 )
( 0.1161736576153504 0.0180546856330399 0.0318767885647693 0.0657598540336714 0.0151657723530488 0.1467265633810275 )
( 0.1138486399295048 0.011081685615012 0.0276513877081688 0.0714923470257853 0.0194514166470814 0.1512576176751845 )
( 0.1128955131706552 0.0048082149384685 0.020595921665155 0.0774409865742375 0.0234734519782188 0.1547753622325521 )
( 0.1128781718723145 -0.0009199715145423 0.0106488447071312 0.08330483526392 0.0268529121132755 0.1573249498417141 )
( 0.1146040699404804 -0.0054243270221555 -0.0009667739487242 0.0885608412129569 0.0295784415554491 0.1591778552737799 )
( 0.1176529876211599 -0.0085402702158861 -0.0135972583981609 0.0926378079940892 0.0311008529277644 0.1606550833096714 )
( 0.1217596010644065 -0.0102944013631271 -0.0255616119930767 0.0958340242187702 0.0311742121642141 0.1629035539494278 )
( 0.1263688529237377 -0.0104213372635149 -0.0355524699482651 0.0976574521095233 0.0298226407954469 0.1655712327057781 )
( 0.1307802459053544 -0.0097627909776086 -0.0441562527810127 0.0986479983962804 0.0272525766277698 0.1679951125198719 )
( 0.1354761895311022 -0.0085734001295656 -0.0516580183710663 0.099075377037569 0.0239625749558056 0.1703356381679933 )
( 0.1408176069100275 -0.0065151379365153 -0.0589555138953141 0.0989438022450353 0.019638103665765 0.173219784315942 )
( 0.1464883243239259 -0.0034573839350376 -0.0661101207598593 0.0986271775531503 0.0137411971702616 0.1765107205927454 )
( 0.1312436034699808 0.0450568103762496 0.0004835274260209 0.0679199402772725 -0.0237642365688048 0.1403920128334999 )
( 0.1269582081331634 0.0445954358027681 0.0097058395779089 0.0648155690040075 -0.0187533352375024 0.1390709791038472 )
( 0.122631225667476 0.0421531374525868 0.0208882084453004 0.0604767145871166 -0.0115038107641716 0.1382943277493439 )
( 0.1185467581283319 0.0363863850225819 0.0297365397112436 0.0601443168762352 -0.0035365600318779 0.1431572450671651 )
( 0.1142718352387377 0.0287816866495114 0.0334341747713744 0.0622872692671666 0.0026478486462414 0.1495951030447695 )
( 0.1106465375886942 0.021278413255116 0.0332700358107099 0.06543739977687 0.0085406888206581 0.1558821479781174 )
( 0.1086197118351737 0.0135684362477946 0.0297088590446534 0.0696425893084827 0.0137768574411424 0.1615109353022936 )
( 0.1075279402869419 0.0064812255827845 0.0228337474402306 0.0748791854262276 0.0191681308323135 0.1662764807450803 )
( 0.1072258135421966 0.0008967898078312 0.0137600733566334 0.0798180146340019 0.0241172491060573 0.1693947157564742 )
( 0.1089031369212341 -0.0031962556975622 0.00291940303545 0.0841744544566681 0.0280986476632283 0.1711000963053718 )
( 0.1124198041353058 -0.0062987860257056 -0.0095137964126962 0.0880557123515751 0.0310398400478147 0.172521080506886 )
( 0.1175602108434992 -0.0080261746692518 -0.0221507274333896 0.0910741592351467 0.0322637890457031 0.1742462236737501 )
( 0.1236558425824329 -0.0077940127705487 -0.0344377817662015 0.0928751141018573 0.0316501073668078 0.1769894647147442 )
( 0.1304900450051008 -0.0059665763628697 -0.0450315786689492 0.0940055360575509 0.0289868158408838 0.1805716449233829 )
( 0.1370520833159977 -0.0029921090501208 -0.0533462552168201 0.0943902474282157 0.0250674520879232 0.184591337107321 )
( 0.1431681182365119 0.0007324037291249 -0.0601675988374659 0.0943457794802178 0.0198575897128962 0.1886012906643715 )
( 0.1491021317869254 0.0050130219630275 -0.0657998608835163 0.0941181364752194 0.0139987186761171 0.1926765599399899 )
( 0.1551941275026503 0.0098431031494613 -0.0710641649127973 0.0937354466049895 0.0075756796558021 0.1973182963534418 )
( 0.1619148684328565 0.0156132602496068 -0.0757550990134485 0.0934378491675608 -0.000489079225779 0.2021727766059964 )
( 0.1236457457575575 0.0431537633664754 0.0112992848459325 0.0729825725247495 -0.0185083432823559 0.1466270188324103 )
( 0.1183626961762349 0.040660204274604 0.0203935549874843 0.0698953490942295 -0.0137207944523921 0.147616146231917 )
( 0.1130642370233097 0.0352095186513351 0.0288451117369567 0.0662858020758449 -0.006643765161653 0.1509875746458681 )
( 0.1089460135144543 0.027189276491765 0.0329282941370883 0.067075219037754 0.0015339249069187 0.1595742428093755 )
( 0.1054095754517592 0.0188569325723063 0.0317736701913601 0.069718844184485 0.0084332805114812 0.1672238878009594 )
( 0.1031371491533829 0.0116366917291855 0.0268722446528725 0.0734555407536402 0.0152234734094486 0.1737156545734915 )
( 0.1020232814607741 0.0054611815195952 0.0192935531124887 0.0777904919389321 0.0215371505249956 0.179072560529013 )
( 0.1020874478271002 0.0006375928436364 0.0089426475330119 0.0824702846468086 0.0279786720662276 0.183161184067509 )
( 0.1039421970482096 -0.0025434058388815 -0.0027221951751534 0.0864152677096073 0.0336618207628425 0.1864613904216468 )
( 0.1077703314574665 -0.0039643710344362 -0.0147449561596686 0.0894157217303527 0.0372504984721945 0.1890128393358471 )
( 0.1134919056866121 -0.0035185543439765 -0.026414371068654 0.091334456726081 0.0379678481346464 0.1909909352153427 )
( 0.1205548112625293 -0.0013420373241788 -0.0379928928737739 0.092243552394927 0.0358947738503427 0.1942024899371257 )
( 0.1283842949778705 0.0024514380667464 -0.0485334947486154 0.0927857103164114 0.0322264274862625 0.1991142487326307 )
( 0.1360704467171926 0.0075954100839296 -0.0565127674797909 0.0926656269194539 0.0263250458764946 0.2034776791579123 )
( 0.1432025982026737 0.0132811071067757 -0.0625125505618763 0.0925410552478266 0.0194862475987146 0.2086864912314052 )
( 0.1498716524003972 0.0193625524104496 -0.0671430617160325 0.0924816548707747 0.012509975833438 0.2139929207061083 )
( 0.1559321733067235 0.0259431249233817 -0.0706445026555482 0.0924015912201375 0.005016592309066 0.218924935461903 )
( 0.161765987195584 0.0327929497905231 -0.0733744023479924 0.0924515738977527 -0.0028846531736672 0.2232922251476114 )
( 0.1684862819401374 0.040363982526771 -0.0756243520822484 0.0927636510527107 -0.0118761523215404 0.2274967343289066 )
( 0.1161936835271252 0.0400371678025582 0.0191000226982132 0.0784814126680289 -0.0130860563199894 0.1542197644394885 )
( 0.1105388042692021 0.0359279757988389 0.0258221347799195 0.0749441662231776 -0.0079897708120984 0.1586380555359605 )
( 0.1052491429899747 0.0282267526315657 0.0304995034797939 0.0719775308761518 -0.0002902770391315 0.1659332885936293 )
( 0.1006035311749998 0.0193871380987616 0.029721695840485 0.0738315905969591 0.0086406215953275 0.1757347960191428 )
( 0.0974571903010903 0.012080295529926 0.0243503752583074 0.0771112486544724 0.0168175056600299 0.183625287815474 )
( 0.0957721700512951 0.0058229819648125 0.0159438935223116 0.0814120448434359 0.0249876165008823 0.1902978528746101 )
( 0.0950412848343297 0.0016105213303074 0.0053993949028777 0.0854449457911032 0.0324623280886609 0.1957172606462426 )
( 0.0965831461836002 -0.0003624759551187 -0.0056742535105061 0.0891211404483579 0.0387879575047218 0.200027420466462 )
( 0.1004961825682842 -0.0004142836339784 -0.0169670780790028 0.0921033577182435 0.0436225573556466 0.2040968973549293 )
( 0.1061347054621705 0.0013358820824007 -0.0279358442922703 0.0936160483517709 0.0453888303681587 0.2076948893132065 )
( 0.1132560573043939 0.0049659946367016 -0.0378973807350732 0.0942069809474536 0.0434673673527286 0.2108345204959906 )
( 0.1214607631117376 0.0105070340208183 -0.0472401996557679 0.0940715214929213 0.0380618864325013 0.2155508994723705 )
( 0.1298969907551486 0.0172775367346051 -0.0549030780753579 0.0937508341289658 0.0307562198519716 0.2211314123698326 )
( 0.1375902983939387 0.0247615226976699 -0.0603166661865609 0.0934148155866173 0.0222101697542182 0.2259875937757481 )
( 0.1448823285211103 0.0324255026307463 -0.064333227384776 0.0936131821127095 0.0132298667720351 0.2312216297218555 )
( 0.1513957179111522 0.0400899743641331 -0.0670970998562829 0.0940321533612801 0.0050124102234998 0.2359141380579998 )
( 0.1575070746306475 0.0479396018094191 -0.0689056964293458 0.0947178579066285 -0.0032159111710109 0.2395013164290029 )
( 0.1638240068906749 0.0562213911042775 -0.0700590669798245 0.095665777001161 -0.0118888328363282 0.2420311512083162 )
( 0.1709156667811802 0.0650320375430018 -0.0706961238356955 0.0969473082886201 -0.0208511900569677 0.2436204022435691 )
( 0.1097106549859191 0.0366905684155505 0.0227756882152984 0.0840004636395125 -0.0078174893817392 0.163661243188925 )
( 0.1035301692767221 0.0311667252517528 0.026079059989899 0.0800905580846775 -0.0017152280167236 0.1710245494720534 )
( 0.0977573795405724 0.0223499088655369 0.0269328976389867 0.0779511980127302 0.0074093376802635 0.1807817331186459 )
( 0.0931222016809409 0.0136573012086898 0.0225086020155023 0.0809611311085519 0.0176406035572559 0.1908847638405991 )
( 0.0898113346141224 0.0076937694362047 0.0142137130029602 0.0849188386094276 0.0273423450952171 0.199121304777816 )
( 0.0879633153596516 0.0041505211991944 0.0036674193885017 0.0888721029915878 0.0363847274001277 0.2058341627907981 )
( 0.0889844541410621 0.0024177214663104 -0.0073075543637442 0.0925621750548662 0.0440620335130835 0.2118140412836154 )
( 0.0922787535587948 0.0025588815390857 -0.0173127803015504 0.0957367170199298 0.049493012819115 0.2173158703676084 )
( 0.0969466626427962 0.0053667229089093 -0.0266578624146785 0.0976629270010582 0.0518828559194957 0.2218825208930556 )
( 0.1038399896957777 0.0099694883925942 -0.0356071225894288 0.0978147633710061 0.0506663546888849 0.2258013323082165 )
( 0.112051568127741 0.0163193698731684 -0.0436477583174713 0.0974341566782114 0.0458943904462721 0.2300816308388867 )
( 0.1210754019448728 0.0242224498969109 -0.0507257973151881 0.0969934609152328 0.0376174001374574 0.2352124147765054 )
( 0.1298061402769419 0.0330791050672099 -0.0558265458047288 0.0965747836116479 0.0270593559329196 0.2396687248170234 )
( 0.1377150597064781 0.0422444390594401 -0.0590421832669135 0.096904744782854 0.016440904925381 0.2435136143042006 )
( 0.1450161198449981 0.0510437828340968 -0.0615115889967874 0.0978998493027032 0.0065362050886364 0.2471892636781343 )
( 0.1514977059958375 0.0599215875617759 -0.0628749221831393 0.0992201519372526 -0.0026063388758555 0.2498345481316038 )
( 0.1582398710548542 0.0688939173860921 -0.0634837632339483 0.1010486709373486 -0.011277462161757 0.2509978295761786 )
( 0.1656424148416125 0.0782877676862321 -0.0636283303467662 0.1031769454266701 -0.01993799730163 0.2506541150583677 )
( 0.1738442614924039 0.0881135335885526 -0.0631003702010131 0.1056985838730018 -0.028288309472025 0.2488363107466993 )
( 0.1030137554967999 0.0335391318141299 0.0223263646376199 0.0892877777270718 -0.002135293198254 0.173825289763521 )
( 0.0955551116987541 0.0271328216852989 0.0222253699575574 0.0854474722317375 0.0053972158767383 0.1828145433395569 )
( 0.0892025615598556 0.0177551896422566 0.0196343259945607 0.0841310578615811 0.0162013751127409 0.1937412154762895 )
( 0.0848952543685133 0.0102679654278504 0.0128244789873627 0.087969855786949 0.0279946089404833 0.204347334091934 )
( 0.0822704616328308 0.0063254214907878 0.0036016207466563 0.0925934291405552 0.0388152967016269 0.2132080032346387 )
( 0.0814285819761813 0.0050301753176781 -0.0064857760369588 0.0963549459898411 0.0475615585163352 0.220684955654304 )
( 0.0837349702083989 0.0058198513000237 -0.0158207651664093 0.0992746201571062 0.0540104970567564 0.2270664783461273 )
( 0.0881631306579626 0.0082936643072529 -0.0241298511878537 0.1017002358367892 0.0576986981701083 0.2325584881695566 )
( 0.0937210275143029 0.0130349609446499 -0.0314658745660172 0.1028046257692135 0.0576494106139186 0.2374084177911179 )
( 0.1017210878271647 0.0200168672200558 -0.0380115954789338 0.1024223785141747 0.0535184252013059 0.2416614788313258 )
( 0.1107319429244933 0.0285591371971007 -0.0441616418841408 0.1014049210046097 0.0450939992069962 0.2455648130770518 )
( 0.1199037297826338 0.0378297521736721 -0.0493157654682733 0.101086052776134 0.0341028040965297 0.2499627424530231 )
( 0.1291252243002016 0.0481087871040723 -0.0528007212949589 0.1015972689371741 0.0213363150190217 0.2529395205985628 )
( 0.1377410424567571 0.058635252757441 -0.0549340603587133 0.1031033157970552 0.0094087334037025 0.2550070897675859 )
( 0.1456950498695996 0.0684201660382405 -0.0561237308247829 0.1052424642649073 -0.0007444177138639 0.2565056062565707 )
( 0.1529647454734778 0.0783173399090512 -0.0565037129917017 0.1079089513866052 -0.0103017651755725 0.256654317982982 )
( 0.1605875956609399 0.0883655348052901 -0.0562867322641442 0.1112025187971038 -0.0189675738268261 0.2547711721330513 )
( 0.1694903182431841 0.0988625302353587 -0.0557272959171701 0.1148884686355896 -0.0271343884377938 0.251263706216714 )
( 0.1795932664568718 0.1098857522811949 -0.0547467209423069 0.1188654287160309 -0.0345763946547481 0.2461401597715944 )
( 0.0959833608028008 0.0309399080265907 0.0188348789606855 0.093691157002774 0.0048780301905991 0.184510824604369 )
( 0.087593891407357 0.0232914132137677 0.0163105664449674 0.0899470205549916 0.0136287363372827 0.1941988103101111 )
( 0.0806874100461213 0.0144634091113072 0.0113308134969175 0.0899942139571296 0.0260329565248202 0.205278386475987 )
( 0.0766608676063783 0.0093267030438423 0.0036759826499513 0.09468781060732 0.0385550536756174 0.2167575540100811 )
( 0.075163574573981 0.0074963022321178 -0.0050107356868992 0.099239039081455 0.0488459986331395 0.2262053539600772 )
( 0.0756862163680426 0.0077090588524715 -0.0132074399816381 0.1030696168120573 0.0568673493964578 0.2340166193195256 )
( 0.0786980382214403 0.010480478105008 -0.0204427445026165 0.1058148433552327 0.0618487333749846 0.2402044914755521 )
( 0.0842352429919995 0.0152284754115313 -0.026899481909178 0.1074853165820021 0.0637924015804589 0.2460191083610222 )
( 0.0909573949893698 0.0214181305248835 -0.0324718258535146 0.1078943374420627 0.061602395096459 0.2510625528286218 )
( 0.0995544439762404 0.0298873435951691 -0.0371633595204158 0.1071728296387083 0.0541182460767418 0.2547232083756489 )
( 0.1096659585343622 0.0398646275072198 -0.0416797310976612 0.1063826171670292 0.0423915946769406 0.2573085109202856 )
( 0.1195678864403251 0.050399238342149 -0.0453137438532164 0.1067703319997537 0.0287838164416884 0.259516431810028 )
( 0.1292655885504448 0.061845194923973 -0.0478035570372119 0.1087777308898943 0.0149026760053173 0.261251633235274 )
( 0.138558274705293 0.0732711919030169 -0.0494070312388173 0.1117307993144486 0.0024336063061332 0.261630213030104 )
( 0.1471239205969897 0.0841531164857548 -0.0496736758187836 0.1153607721742819 -0.0081322749988584 0.2603848099937167 )
( 0.1554893413296014 0.0951234664823003 -0.0493226708835663 0.1198110407743647 -0.0176211801956565 0.2576686998855834 )
( 0.1646216244748036 0.1065474058494451 -0.0487841358173115 0.1249980455090395 -0.0259684283840186 0.2530190710496058 )
( 0.1754935456920054 0.1184998391511815 -0.0481049735815965 0.1304346252863882 -0.0333442978594387 0.2467047676681476 )
( 0.1881798267913018 0.1310025687585692 -0.0472424074146023 0.1357872221190205 -0.0396684465826565 0.2387556776728908 )
( 0.0890136080784501 0.0280617005146175 0.0144808323346968 0.0969356616151421 0.0116063100982148 0.1945660970364822 )
( 0.0800355551808458 0.0205283194441571 0.0100512271135747 0.0937147618727705 0.0217515722212849 0.2032524609099518 )
( 0.072823641392953 0.0130290489176619 0.0037442475078725 0.0957325117358255 0.035975064024249 0.2156864152673663 )
( 0.0695177012602866 0.0096433127189192 -0.0033523270797935 0.1012768303985116 0.04802434198984 0.2279070760638457 )
( 0.0688261665800054 0.0091814731916116 -0.01059591918308 0.1056568945133054 0.0574738915912581 0.2378128682967621 )
( 0.0706463835618013 0.0113245534500199 -0.0168943544383498 0.1095321432483786 0.064579080176379 0.2460789823151248 )
( 0.0749797262929061 0.0156659130647932 -0.022016650036471 0.1123592111831064 0.0682158512782868 0.2523540739860888 )
( 0.0814638286522246 0.021517790330315 -0.0264728160259427 0.113361634129522 0.0683493864181405 0.2583088908007666 )
( 0.0895288836747122 0.0289237004439198 -0.0304545058254094 0.1132607426807372 0.0631648854427845 0.2621811092328734 )
( 0.0982301480134853 0.0383835241885649 -0.0340131584183697 0.1125023786898935 0.0524681527640257 0.2645647841505666 )
( 0.1082363042089868 0.0494272084633861 -0.0372986523330814 0.1123982950541861 0.0383607864721979 0.265591808650339 )
( 0.1192879787425082 0.0616081279046505 -0.0400937097787418 0.1140810165460586 0.0225847637140782 0.2657657948056236 )
( 0.1295611423540424 0.0740438574119354 -0.0418855157949513 0.1175646756743999 0.0080189166017061 0.2654970520045551 )
( 0.1396747761311106 0.0863572403266766 -0.0429567102320208 0.1222935447904575 -0.0045337566363952 0.2633787228173494 )
( 0.1494649297345269 0.0987147588227083 -0.0431419304931268 0.1280603466736986 -0.0152759085080765 0.2596470962411493 )
( 0.1593347840147878 0.1112357059667856 -0.0425803765219003 0.1347657798420406 -0.0245195448497686 0.2542224749417634 )
( 0.1705374304919301 0.1243327528990988 -0.0420488287462242 0.1420930886998338 -0.0323636902371433 0.2473861184625012 )
( 0.1837148067804823 0.1379538373082542 -0.0418822262035563 0.1492439556248849 -0.03877604372288 0.2389397558378738 )
( 0.1995977278362973 0.1526701627551057 -0.0418765026540479 0.1561339449505717 -0.0440703216208971 0.2287326397380152 )
( 0.0806061225248961 0.025214493885988 0.0093431655694971 0.0996535801796656 0.0179534901504682 0.2019519631845952 )
( 0.0714814743941543 0.0187782372434566 0.0038058658301973 0.0975346636235743 0.0296224039702608 0.2099937879370922 )
( 0.0651476405180968 0.0127166661887965 -0.0022486991865737 0.1014021591393934 0.0448215321336315 0.2245848925759324 )
( 0.0628844545579009 0.0107278184744366 -0.0080800640569871 0.1072935055743325 0.0562327629714057 0.2379479994650236 )
( 0.0635077680944084 0.0117364527546388 -0.0134588005596195 0.1119978711040433 0.0650654678791298 0.247986432627207 )
( 0.0669412183522452 0.015251870611378 -0.0177428381176414 0.1156122309603 0.0706721217884454 0.2564416634267001 )
( 0.072513356095779 0.0204490242886189 -0.0212830301932839 0.1176911204648848 0.0725141766442971 0.2630891180088912 )
( 0.07963232109119 0.0270822783224652 -0.0243116993849013 0.1185476986966569 0.0702743879128011 0.2678971439180347 )
( 0.0881768388981768 0.0355990783607616 -0.0269635247642952 0.1183635810836782 0.0619470108283747 0.2698223490201798 )
( 0.0971266402584489 0.0459167675696714 -0.0293531119751398 0.1180823583300881 0.0488785183295998 0.2706224371452573 )
( 0.107384473134967 0.0578645683715345 -0.0317883818994448 0.1193115747936507 0.0330486243975661 0.2702496559672773 )
( 0.1188113178885515 0.0712022059010913 -0.0341177099616431 0.1228592611271568 0.0162375623453034 0.2690406483506658 )
( 0.1299903776067699 0.0849669763134627 -0.0356671633330287 0.1282076914963275 0.0011215657607813 0.2661552940457199 )
( 0.1415773447522144 0.0990680183173193 -0.0368927944058808 0.1352159752589895 -0.0117243258021419 0.2613095176495714 )
( 0.1531306644520621 0.1134023767859611 -0.0373565647122145 0.1437977408696646 -0.0223875126318658 0.2553700782318115 )
( 0.1647256255916151 0.1276047074081941 -0.037200244398322 0.1529998991495234 -0.0309619986698755 0.2480959090707215 )
( 0.1777593200110587 0.1423489831967196 -0.0372505902050427 0.1623845625902394 -0.0380297451652731 0.2395340724013016 )
( 0.193989767869634 0.1583798652961269 -0.0378040896332848 0.1714743159565909 -0.0436634550284828 0.229486776060628 )
( 0.2142414460662147 0.1760628248154201 -0.0387422972449387 0.1801088508422443 -0.0479225149223522 0.217972188018654 )
( 0.071790308543674 0.0230995170145178 0.0040156769408327 0.103039548715808 0.0247343622060943 0.2074737153177864 )
( 0.0628617122407381 0.0172605960066683 -0.0011159351785868 0.1018841709695125 0.0372275070188807 0.2172374787222973 )
( 0.0582342985649291 0.0130423743523971 -0.0058716931715147 0.106745725015257 0.0524089646460235 0.2332455403624107 )
( 0.0573392327471754 0.0128488421776856 -0.0103819218481212 0.1127347197921964 0.0629247280225617 0.2466188485842032 )
( 0.0596582068384603 0.0149271716021463 -0.014182388844198 0.1174709535992153 0.0707157519878568 0.2569746732365746 )
( 0.0646561806953346 0.0192217916395071 -0.016888313600387 0.1208006743360308 0.0750414287264613 0.2647893314626637 )
( 0.0710020243875771 0.0249671296506 -0.0190586507350523 0.1226049120110082 0.0749211536813442 0.2708795025227093 )
( 0.0784413482439648 0.0323208632910035 -0.0206705723605186 0.123639216026185 0.0699817604431408 0.2746350328441838 )
( 0.0870716815575744 0.0417466163012796 -0.0221578870806926 0.1238294758042257 0.0593415971077363 0.2757478087215939 )
( 0.0965256014972805 0.0528600577393024 -0.0240910744616196 0.1242506499836888 0.0442577130698008 0.2751056112407212 )
( 0.107569695295074 0.0658852128274361 -0.0264852993143837 0.12729788328674 0.0269049086235179 0.2726898286112235 )
( 0.1192310080391018 0.080222082017007 -0.0287127564393366 0.1330190499379612 0.0096827313418744 0.2694301359182364 )
( 0.1314113845615589 0.0957089254439435 -0.0303694399048802 0.1410214237647201 -0.0058811201436201 0.2642148033662599 )
( 0.1443639368192575 0.1119670056620986 -0.0318247729613527 0.1511170388586058 -0.0189092879632177 0.2573029884385564 )
( 0.1568923749380578 0.1277733671417564 -0.0325423563991049 0.1624516195932264 -0.0287835635666149 0.2497198187115441 )
( 0.170239387656898 0.1436891497426108 -0.0332007011956431 0.1739734872163747 -0.0364398690811773 0.2409516774070925 )
( 0.1861468970867867 0.1611071082235185 -0.0343494084546626 0.1858346571906102 -0.0429365272770675 0.2312022668182449 )