/*--------------------------------*- C++ -*----------------------------------*\
| =========                 |                                                 |
| \\      /  F ield         | OpenFOAM: The Open Source CFD Toolbox           |
|  \\    /   O peration     | Version:  2112                                  |
|   \\  /    A nd           | Website:  www.openfoam.com                      |
|    \\/     M anipulation  |                                                 |
\*---------------------------------------------------------------------------*/
FoamFile
{
    version     2.0;
    format      ascii;
    arch        "LSB;label=32;scalar=64";
    class       volScalarField;
    location    "0.002";
    object      k_LES;
}
// * * * * * * * * * * * * * * * * * * * * * * * * * * * * * * * * * * * * * // 
 
dimensions      [0 2 -2 0 0 0 0];
 
internalField   nonuniform List<scalar> 
13597
(
0.1549029725273555
0.1529782341311219
0.1491172902522078
0.148461102816378
0.1512191202522604
0.1537119067418208
0.1571094134636926
0.1620513119255656
0.1675526834506705
0.1730412855360189
0.1797211656595473
0.1884710955450415
0.1979633816271622
0.2083129264009379
0.2197161205992517
0.2320967889819786
0.2442928406229567
0.2556916587201923
0.2681528916500516
0.1648776419876388
0.1632334094633628
0.1581059259529894
0.1572909497756626
0.1586644854137361
0.1598727159457387
0.1616173822461255
0.1649863076663252
0.1695897135821793
0.1737825442051883
0.1794854259993262
0.1873579346570984
0.195941307683921
0.2061601499436443
0.2170959484240066
0.2274687902697492
0.2365552754710998
0.2449325513957658
0.2535807542743977
0.1733305134228902
0.1707767229194157
0.1640471445836787
0.160996947349818
0.1600311334422559
0.1597565686755545
0.1595375825005237
0.1604405507689602
0.1629742688527378
0.1667287681707341
0.1719026694250882
0.1787698057070939
0.1867274956316528
0.1946304347375016
0.2014888279877848
0.2067186805137735
0.2101495333272243
0.2124885305717674
0.2144292201296476
0.177266088998975
0.1737051452111182
0.1658563698199178
0.1612132624043002
0.1593276290505658
0.1583900693450836
0.1582972213198524
0.1595892939150315
0.1621497259893403
0.1653936648161217
0.1688091202951827
0.17306400420768
0.1769892852628336
0.179900656570317
0.1813152179304065
0.1814729439710233
0.1808016460247137
0.1795284739620708
0.1782376307324525
0.1798264936638178
0.1746790437487974
0.1671604988232982
0.1639151121467119
0.1634812950366655
0.1639442787097787
0.1652448022104556
0.1674824381805114
0.1690796084292727
0.1697316572188223
0.1701941672959162
0.1710334707924359
0.1711432338824361
0.1708026091255897
0.1701402431743209
0.1693535158064072
0.1686346397730943
0.1682459023287947
0.1683382037622835
0.1821733276020425
0.1771567697819185
0.172245800514147
0.172499970728308
0.1742252649775656
0.1764876855925297
0.1779658732594055
0.1793125492928119
0.1793093842210349
0.1779509203412429
0.1763996035483367
0.1741558645599213
0.172688114114316
0.1721974931353341
0.1723167235683737
0.1730357017299893
0.1745994439802359
0.1768650089338057
0.17994264072792
0.1860346042927773
0.1836993364085963
0.1828098999171294
0.1858915155299518
0.1890100505107731
0.1918393097373147
0.192446542444805
0.1916656376831747
0.1898888544465672
0.1866732477016851
0.183525151203317
0.1807871580645304
0.1799794667173064
0.1809979796450193
0.1833164755704892
0.1866899687367741
0.1908388143536222
0.1959860371453781
0.2022533208784125
0.1935051782444938
0.194655462417452
0.1969692193020963
0.2018367226837192
0.2051694332390409
0.2064260840979363
0.2047513414489332
0.2021441236461045
0.1991715570797583
0.1944553432764293
0.191246300815966
0.1904590659558699
0.1913055589971218
0.1943351196799051
0.1989984658708143
0.2049648612351585
0.2117825489002551
0.219860502139939
0.2290594221022431
0.2040676519979397
0.2082911480583785
0.2129933441033915
0.2181825222960779
0.2205079335033039
0.219360357713383
0.215110292672629
0.2105450948742855
0.2062393001618926
0.2021674875307423
0.2001524381781814
0.2013220376217477
0.2043927591616854
0.2099947253505727
0.2172719665778603
0.2258151361083676
0.2353345133495691
0.2461444833223511
0.2583542546421772
0.2168995905317782
0.222996889291266
0.2281791992406467
0.2323489518125721
0.2319792546523761
0.2288741392060722
0.2238571488549766
0.21808322012027
0.2133132993514846
0.2102232061584815
0.2096493887708953
0.2124844348351242
0.2183844742558943
0.2268906865701586
0.2368891677105806
0.2481879628824177
0.2607250026962813
0.2742242998191275
0.2890125445481286
0.2296575232373375
0.2355649213669731
0.2411169075445219
0.2436831724549246
0.2402728406973345
0.2354594258874505
0.230550507327218
0.2250281992381803
0.2203626873518281
0.2182073107520471
0.2195791527454855
0.2250199913254169
0.2336758049106561
0.2447876370642546
0.2577538595692276
0.2720398109690679
0.2875259232254109
0.3035508148174615
0.320948675631803
0.2414514903868438
0.2470712200732108
0.2515382238429309
0.2517522766486571
0.2469388899542669
0.240458831797915
0.2347921923845622
0.229826773256755
0.2261172909346172
0.2258393379596419
0.2296808930231469
0.2383882774750958
0.2500076813416344
0.2641817781876074
0.2803632602964722
0.2974442999615973
0.3153877910162542
0.3343663272629212
0.3551419546677868
0.2524130173320368
0.2575262902227784
0.2596737089077356
0.2571136217958511
0.2511794848497725
0.2438966044385767
0.237704177434456
0.2334540755621642
0.2318391116513976
0.2338433669590929
0.2404767175913429
0.2523602237990877
0.2674739412320834
0.2854713403293993
0.304252129401081
0.3234904250868503
0.3448200717577448
0.3677307717735821
0.3919641894750666
0.2617562621234483
0.2647941136798133
0.265556669242861
0.2607827732814794
0.25348395408823
0.2464644864679473
0.2406381624581384
0.2370181886310168
0.2373452616918603
0.2420882253624149
0.2518624988243095
0.2672134823024505
0.2859302116993934
0.306780416916971
0.3283797925225177
0.3512752164796506
0.3767277219089149
0.4035096615584597
0.4315672035395754
0.268548225091602
0.2698475857170505
0.2691478143792654
0.2629583529826682
0.2552754717669729
0.2483506082523102
0.2430830250944629
0.2406925110718461
0.2432926732032695
0.2509272549126343
0.2641193337636121
0.2831244922927569
0.3056060750818316
0.3291219714940093
0.3540256521593986
0.3813328067072319
0.4107673832538672
0.4418921017592569
0.478309699054191
0.2723247779602823
0.2725987075840279
0.2702691640968261
0.2639938001532492
0.2571180593599649
0.2497321638387573
0.2455058716826922
0.2453271972556472
0.2499941935883896
0.2602055638217529
0.277345239021441
0.3008595979034542
0.3263372051163391
0.3523272602465101
0.380911878635022
0.4123532330459181
0.4465502928375904
0.4860705671316779
0.5372723039130143
0.2740725723792493
0.2732408753900137
0.270267786113854
0.2641682110691164
0.2573152546316425
0.2505456166400791
0.2480350268130019
0.2498941598018642
0.2566665551660678
0.2700437039763213
0.2902460874587326
0.3174623375771294
0.3463312092927089
0.3758158477647058
0.4086715472618973
0.4447780354283093
0.4862528900370645
0.5396533801360032
0.6059944909071597
0.2753987047539417
0.2736282112499695
0.270203626970208
0.2638305981785811
0.2569691482031926
0.2516123532872659
0.2507912596544265
0.2541227892632925
0.2637194921734132
0.2805972916227806
0.3040622670245804
0.3341258861106227
0.3664038852878646
0.4004581409120777
0.4379292402720928
0.4796294084916677
0.532788541311005
0.602748644176237
0.6695243031807894
0.2753411864397996
0.2725587427269114
0.2690671567981499
0.2632428580243391
0.2568413255712352
0.2526410064327951
0.2531672487833922
0.2586094801811285
0.2713298672952043
0.2914948582773939
0.3190388476182329
0.3516371858369397
0.3874523477782373
0.4264499501784111
0.4684073302022288
0.5191779769095058
0.5882965834997981
0.6732578210126112
0.7211750401342681
0.2734323118316771
0.2700486798999317
0.2670837623714757
0.2618206800144967
0.2564245443187657
0.2537452249877141
0.2558696729333978
0.2634625603552346
0.2787352439893285
0.3022024731058149
0.3332288737044578
0.3697094951856923
0.409528054463078
0.4522208863792181
0.5019810881529767
0.5649020083369526
0.6514901794235034
0.7439728502637287
0.7577923388685509
0.2704993161532659
0.267043404534748
0.264507897935624
0.259839283405451
0.2559303629909924
0.2550977249247739
0.2589378982933266
0.2681968490652918
0.2861313863454426
0.3128646790816449
0.3474472432423091
0.388893506646003
0.4314622632807087
0.4770210686486796
0.5367074487236112
0.6171268345881623
0.7204579666919781
0.8079149408157901
0.7560294124237982
0.2671336485685639
0.2633955887906583
0.2618631622704828
0.2582705757335161
0.2555994714130555
0.2567953935294476
0.2625774422793908
0.2735408099047032
0.2942653799219397
0.3238904933084742
0.361374583401376
0.4053943263876037
0.4510711685684319
0.5041864464624658
0.5740758722117422
0.6734914276630095
0.7894985899699122
0.860116520156506
0.7034006586371998
0.2631918740545972
0.2595974196208215
0.2594032206438812
0.256802814625674
0.2551709226021137
0.2582176611423106
0.2661653978336389
0.2790958491545485
0.3025240560765316
0.3357280695050518
0.3758751909385466
0.4213720939737801
0.4706944926207611
0.5325923909158173
0.6179591513207394
0.7340512194938259
0.8551565205513425
0.8752922613557506
0.6434710481359377
0.2585902237382287
0.2555320797036052
0.2568756041750659
0.2554344826225025
0.2550952425996272
0.2593373758572361
0.268550970344202
0.2837039696237851
0.3095476515381927
0.345396834713102
0.3887734317879833
0.4386569829972241
0.4935996430645064
0.563667372343596
0.6645386305714682
0.7955174414238323
0.914933338598398
0.8620661426255116
0.5865872906752234
0.2540507868732084
0.2519696864364058
0.2541849684422453
0.2538132268018735
0.2550813977761442
0.2604924538581452
0.2709742830925357
0.2880219432591022
0.315483669075711
0.353661270649338
0.4006014803141396
0.4550416303505503
0.5165909434500917
0.5996359025907169
0.7130152023797626
0.8540638579511182
0.9594731791887808
0.8432848839357157
0.5243849232639558
0.2501257542390931
0.248900541697759
0.2518360809289456
0.2522521709498073
0.2549996623341529
0.2621507520215792
0.2739027256863747
0.292238364795336
0.3216434015551273
0.3632948316212703
0.4129172858224844
0.470466112716654
0.5387082398638395
0.6335648498006299
0.7599236648215834
0.909042882597551
0.9723889459695616
0.80199414103899
0.478152749293197
0.2457989795635594
0.2454105543162308
0.2499777400567305
0.2516465797331433
0.2553322880841427
0.2638753865585355
0.2768617951544028
0.2971049877125841
0.328731223046165
0.372669604869949
0.4248149716117144
0.4852953334625782
0.5601200717046058
0.6634184997876406
0.8042663737503194
0.956739327220522
0.9762929576340492
0.7559604959232447
0.4393064716162481
0.2414141652283435
0.241834141544945
0.2479959700774283
0.2514993402237387
0.255884015862757
0.2650495176345064
0.2795790018327048
0.3016315192747303
0.3351080110603086
0.3817003987360762
0.437304700341188
0.49948139927662
0.5799220772400723
0.6936956025650146
0.8519459778603006
1.002482517267219
0.9922804815132956
0.7263213187448884
0.4072740940148787
0.2376779994217266
0.2391200426038943
0.2461085019544913
0.2509238127092907
0.2564405451328823
0.2661536741717695
0.2817010264626597
0.3050739497210446
0.3405238949054172
0.3897300152418534
0.4480984971894559
0.5146493751819369
0.6048716283776808
0.7264457422847016
0.8949007316817814
1.0372686246438658
0.9940805519809658
0.7003329106371322
0.388233558393018
0.2339751144688239
0.2365625701910264
0.2445339341020507
0.2506184625221228
0.2572634388675869
0.2673016415870026
0.2834491013836305
0.3082033665275717
0.3459857112551565
0.3962537331599055
0.4560720170287283
0.529566087008941
0.627211137918965
0.7572029680275968
0.9317049803639246
1.0361603929685077
0.9589987364172504
0.674163236614085
0.3769812949154653
0.2303277268589685
0.2336637232574999
0.2431860111004882
0.2506522263306174
0.2579594350080646
0.2687053114227791
0.2856000934638038
0.3115452797337135
0.3514914676688702
0.4031025969872632
0.4648271183081112
0.5438153024505806
0.644243009541119
0.7847844214178946
0.9647330377111722
1.0296731158907964
0.9214381169095744
0.6502212027042028
0.3688105199376124
0.2269660958709565
0.2312044957412902
0.2420245641780242
0.2500578797418721
0.2583529632681783
0.2702861262316576
0.2879386012792203
0.3152769786815748
0.3565126135490702
0.4094682926664442
0.4736504142115644
0.5567835520135235
0.6620398442743753
0.8170095195729172
0.995440969302582
1.0414427503118426
0.9120207363184112
0.6296735577123483
0.3584456067703112
0.2238707687686489
0.2291193608908704
0.2410982297931971
0.2496725775804253
0.2587764864023123
0.2711495230893923
0.2894080305281153
0.3185080594785412
0.3609166722172843
0.4156781927993159
0.482502005840983
0.5687220826422588
0.6775097073888713
0.8435948789026942
1.0247566073660677
1.059124751381976
0.9129056951830112
0.615043041666692
0.3467675431626812
0.2215168897569651
0.2275643794568938
0.2402296145153567
0.2493584241529304
0.25912641264825
0.2716754558596252
0.2902220181873858
0.3209286671759708
0.3649371783938518
0.4224595057483825
0.4925123110002164
0.5804236433926023
0.6915882329111008
0.863587358808123
1.051124839493061
1.077686563073919
0.9161329295441014
0.6063403767809805
0.3397454331720355
0.2199474997237609
0.2264059697534609
0.2395919852762984
0.2491082136806731
0.2595599858226737
0.272510737720271
0.2913529031572408
0.3228560387926218
0.3685121789260406
0.4281794440231028
0.5002808788148606
0.5900508866344505
0.7056971482119896
0.883586010946654
1.0714392665841956
1.0891134360017265
0.9162897998701652
0.5995792954049481
0.3352614018797591
0.218414838485634
0.2253201700118453
0.2393593497545557
0.2492236639407301
0.2600989668387159
0.2735070783988397
0.2927467641438726
0.3246753257550672
0.3718397625467871
0.4324612327279023
0.5060925246571851
0.5982902868332589
0.7183058464637421
0.8988137117962378
1.0873879954222745
1.0993526674950052
0.9129766923675384
0.5912266946159125
0.3298793983735738
0.21690101418731
0.2241888110592342
0.2389142648125216
0.2493894365211367
0.2606064392244024
0.2746122947362849
0.2945678502267094
0.3268325701528565
0.3750634008503515
0.4364166139752625
0.5114996749654879
0.6066017229440646
0.7302893710707132
0.913341547520068
1.1008071264064787
1.104591573958731
0.9132894062271744
0.5892777623434322
0.3252815269738649
0.2159036525402632
0.223477001062173
0.2382626992580592
0.2494794577576427
0.2610647421411678
0.2750335709420138
0.2959162485722483
0.3288866554232246
0.3785040820925049
0.4401962506541369
0.5166077511675584
0.6146121953351907
0.7439412959926799
0.9285839384930318
1.1070181851841234
1.1052260279732258
0.9103457110386476
0.588207113626463
0.3229703041821428
0.2148965318176595
0.2229138771276496
0.2377409822877263
0.249160991641864
0.2612436576147612
0.2748842817467004
0.2960695686643612
0.3297615258528276
0.3810634657765729
0.4431268925548142
0.5204583037141347
0.6208541044640401
0.7566503135782524
0.9445891239497888
1.109544778881835
1.1016031438083755
0.901770161339661
0.5822784625899455
0.3224445052397885
0.2136954678896493
0.2222395178262953
0.2374643942983123
0.2487991036061288
0.2613079399626247
0.2751002603499257
0.2962227572074714
0.3300361900411894
0.3820692301149351
0.4447917984844896
0.5226898510338025
0.6249252258931969
0.7643982880946713
0.9570682211157407
1.112821143255424
1.0942283250730382
0.8959164312992355
0.5790292898335484
0.3224618979644765
0.2127836782896867
0.2217892251331833
0.237510217224017
0.2487713092779215
0.2614781929896931
0.2757152315661803
0.2968758620393097
0.3310770809580952
0.3839161963659745
0.447652280245868
0.5253065394005803
0.6293176497499254
0.7710953995044866
0.9638321795121346
1.112066289909156
1.084834917564507
0.8885341553757368
0.5752848702347821
0.322617408425109
0.2119336279086157
0.2214889001901382
0.2373778370572252
0.2488167503643539
0.2614061912595347
0.2762520256112454
0.2979948883093122
0.332347828597712
0.3860120538817219
0.4517735019158133
0.5293751090915277
0.6338841558292402
0.7766358838523231
0.9669129331868008
1.1120692141350168
1.0813402454762595
0.8810645286481822
0.5690686746124839
0.3215800712501276
0.2111036156249346
0.2211444027734889
0.2369240303848045
0.2485371788113946
0.2612596262920957
0.2766979007760604
0.2989086973187897
0.3328391258588339
0.3861895475428072
0.4540748804977802
0.5330021926179632
0.6366149253510884
0.7785303681908335
0.971992730338144
1.118912952067788
1.0819760998818957
0.8756296681902218
0.5639140187631596
0.3185407607339123
0.2109074281920749
0.2206984039887337
0.2364170834270343
0.2480106928467006
0.2610220295164183
0.2771056645108319
0.2992631902250403
0.3334355499262848
0.3873358449963036
0.4566668667615251
0.536384255116491
0.6402949782240435
0.7816852306259681
0.976773158819762
1.1175068021850485
1.0743188982312075
0.8702771568930322
0.5611661994510294
0.3171903975647598
0.2087079338273155
0.2074557965124284
0.2045448983461838
0.2016304267433172
0.1996546052987132
0.1969374738236608
0.1936546441003691
0.1906530154494133
0.1866807093978339
0.1819818191271513
0.1773296391488138
0.1732624271760529
0.1702124288677247
0.1672828484856751
0.1649433408930908
0.1633667091703091
0.1623795063443224
0.1617540409102758
0.1613639941695601
0.1922757045405687
0.1887498731942419
0.1845178100381161
0.1823250897787331
0.1802300323642816
0.1784378418115804
0.177017907866482
0.1751693007704121
0.1732785762560641
0.1718740551702655
0.1706789432154034
0.1706570614803174
0.171508092260035
0.1726317328584752
0.1747215551809964
0.1771942591616221
0.1798635496059656
0.1829782758778168
0.1858849561862426
0.1800822886866716
0.1764001116106511
0.1730975213201044
0.1732173006095788
0.172675973252605
0.1723327885764463
0.1724638126546018
0.1726155607810489
0.1728212411074809
0.1734135552553395
0.1749290578540475
0.1775993004012025
0.180964731507305
0.1849121932259315
0.1892469836361673
0.1934932744350589
0.1969739062189041
0.1999227027456247
0.2025566505923693
0.171867441480063
0.1697998312620353
0.169303019000985
0.1711115615944448
0.1712616101752283
0.1717041654635076
0.1722332733675872
0.1729361132400633
0.1740956474763391
0.1756118347663144
0.1783904807122233
0.1822497462578824
0.1870349307439174
0.1921660314855603
0.1966052955675515
0.2005706374159808
0.2039105488372214
0.2073520043950974
0.2113047009317885
0.1678722923304982
0.1676224390408698
0.168575871983469
0.1707097195574848
0.1714415253650925
0.1723862684077375
0.17298285145938
0.1738632518764808
0.1759379010429054
0.1786871038712326
0.1829733940324713
0.1882357732250627
0.1944496290233429
0.2013912284645189
0.2076512200151537
0.2135667548987948
0.2195145791786933
0.225882234583683
0.2329006740234452
0.1670724433370886
0.1682136430407912
0.1695719271679102
0.1714225612442798
0.1724938070049077
0.1736505896167968
0.1745572921810917
0.1764974260901868
0.1798395597546799
0.1843727987519717
0.1906201793854536
0.1982459443269025
0.2072356850198791
0.2165573965032612
0.2254686456928329
0.2341457600320096
0.2424028241226511
0.2512757811077879
0.2612601099034
0.1694819884382904
0.170747795575312
0.1718797996858355
0.1736406644767356
0.1743393446713914
0.1754690998355783
0.1774042474587267
0.1807860112028666
0.1857493498959267
0.1921765419081654
0.2006400178739688
0.2112976424435756
0.2231154111366705
0.2347290866192782
0.2460648694134525
0.2568754645139837
0.2672469490537203
0.27829872278903
0.2901063222587399
0.1734637352158224
0.1744280435370208
0.1750556516664433
0.1762035121860251
0.1770699622443572
0.1787765014716189
0.181911090846225
0.1863952555569579
0.1928940272680127
0.2012979181099517
0.2122373468594595
0.2260099388236716
0.2399825776911518
0.2537336173963853
0.2666772350010459
0.2790242775662832
0.2914401087380719
0.3046156837600616
0.3183463989509485
0.1789575273555134
0.1793398672632662
0.1785343442889069
0.1790747958868471
0.1802652187638494
0.1826961688039022
0.1869417476804301
0.1931454494938712
0.2013998309351096
0.2116314197259331
0.2248189111802411
0.2408412609693857
0.2569450361107285
0.2723807244550495
0.2868411590106803
0.3009220975842651
0.3152988251873519
0.3303821504427823
0.3457750033668208
0.1841303570964216
0.1831219985995968
0.1819761746200879
0.1823334708320448
0.1835353603237282
0.1871382340306949
0.1925752019261133
0.1999788353742496
0.2094935673619901
0.2222743247356333
0.2379818336272172
0.2554874092669955
0.2733433242348339
0.2906798562820323
0.3072554738755419
0.3231437333551935
0.3395169441605637
0.3560837582787526
0.3726120709948946
0.1881094603072708
0.185910309092336
0.184622445377218
0.1854498102816252
0.1876014324919008
0.1920518759222358
0.1980124660881919
0.2064813976835563
0.2178976867723711
0.2326168447279969
0.2505745706363143
0.2705445574093615
0.2902393274212617
0.3095940384007198
0.328162143778627
0.3458820640492291
0.363843545449653
0.3821454827597605
0.4005120003607866
0.1917046737763298
0.1887184396446769
0.1867791859677419
0.1884525397938644
0.1916318879499406
0.1965570764392473
0.2034568890605299
0.2138327464389232
0.2273466111243539
0.2435064540013649
0.2640791467719893
0.2863319179155025
0.3077151326294994
0.3287695621351162
0.3491648762117257
0.3695931850774233
0.3895270788850954
0.4099212370815324
0.4312469859063162
0.1943660320186342
0.1909887637312815
0.1898187553883327
0.1917817160468523
0.1957840353263704
0.2016443712818219
0.2095815875118573
0.2210920970095271
0.2366238460353887
0.2553691663177254
0.2774836045062869
0.3020057598224206
0.3253720589934661
0.3478889533314617
0.3708741936094571
0.3938992636776602
0.4168062976002287
0.4404498311408596
0.4653853875344358
0.1965265664537992
0.1932673151839195
0.1931705121089593
0.1955175170364465
0.2002764257962344
0.2068812037124823
0.2159684717470155
0.229040045966894
0.2465435821870673
0.2674145153907469
0.2909797567755727
0.3170832706327205
0.3427965262100808
0.3674482869468127
0.3933421013941094
0.4199936516850584
0.4462466725221455
0.4737207392283847
0.5029301313445633
0.1993083755564658
0.1957767799549422
0.1958890682637204
0.1995679529276935
0.2052856972181625
0.212541765194281
0.2227293843501568
0.237050938947773
0.2556095097284994
0.2780307960865266
0.3040648949162732
0.3317466649660409
0.3602391911255307
0.3886247593317826
0.4171502921107937
0.4473571573364426
0.4780084528003672
0.5105347999670422
0.5483971975339128
0.201925528623447
0.198144024179296
0.1992763534648012
0.2039111879519185
0.210355614900633
0.218477080146562
0.2294321907940234
0.2448658422756525
0.2641824697345397
0.2885724431959364
0.3167246162623591
0.3469673211951765
0.3789419279731801
0.4110155391342085
0.4426130317438035
0.475285619200739
0.511461903625113
0.5536285775111677
0.6054694469755401
0.2029464491847585
0.1999615812202562
0.2034453596621657
0.2082495776562817
0.2149970024591003
0.2235717339739125
0.235643885913411
0.2527302583179296
0.2734202010851568
0.2994319551480518
0.3294482130123718
0.3632362414904982
0.3981991836171518
0.4330069501191028
0.468623289169454
0.5060432904454707
0.5493237671335328
0.6052885426138909
0.6712046164238377
0.2029841197559163
0.2013709613456496
0.2073159509219706
0.2125409889872682
0.2191416823436751
0.2285330739433529
0.2419701950605597
0.2599561470596989
0.2825391221354843
0.3097173485619891
0.3420111615984073
0.3792954797455
0.4173717499531811
0.4559084049523612
0.4956933785806254
0.540300710650741
0.5943873565879746
0.668949948492903
0.7394985681558164
0.2033793240709282
0.2035433151513361
0.2101992514402376
0.2164206689517504
0.223392539812584
0.2331236312218896
0.2474907825117759
0.2667928326425959
0.2911756754844203
0.3198785402887019
0.3548293341592774
0.3945513124590348
0.4367073526329552
0.4792330124759517
0.5232141417075877
0.5779597847746919
0.6480669775028062
0.7376411291510344
0.7911862934754513
0.2044740997397988
0.2065107419782691
0.2133892707645464
0.2200446779313768
0.227521513619091
0.2376541787562948
0.2523102324739452
0.2726924348245765
0.2988896863611061
0.3298969931144437
0.3684768290483374
0.411454594210907
0.4565057328519131
0.5029690057336516
0.5528661807781954
0.6191627357351459
0.7100280954650223
0.8029763251720633
0.8214782120346357
0.2060721309803641
0.2089597153754867
0.2166862018438483
0.2234300780673631
0.2312281144990692
0.2420891692956744
0.2576762722085711
0.2788198431200761
0.3056273488512454
0.3388891385523414
0.3811304608464261
0.4284652880603457
0.476305217773229
0.5281857097283146
0.587864972756414
0.6678396963406102
0.776310118417484
0.8661314840512305
0.8205649340917447
0.2073819794265077
0.2105225516773206
0.219606666389028
0.2268473336163902
0.2348454191542833
0.2459300051445728
0.2626548444342605
0.2850033654827176
0.3126523836782716
0.3480638438906914
0.3930600704265695
0.4439794023898804
0.4955829782001626
0.5531383108290245
0.622808185190021
0.722220968867388
0.8485949644928853
0.9280571789105204
0.762906815166466
0.2088537584579128
0.2121314542870349
0.2222646857877344
0.2299668540397854
0.2379966799985065
0.2497117018115196
0.2671776443655294
0.2901163978276694
0.3204423575711663
0.3587954254075802
0.4061314313000846
0.4606154897228837
0.5168384555777141
0.5798937257146467
0.6642140349521098
0.7850663514011381
0.9172226175752732
0.9350179867097268
0.6887576013621051
0.2094000905418251
0.2136665401378722
0.2244216220609209
0.2323133930671223
0.2411336529620047
0.2535522780458755
0.2712324838662484
0.2944876679196411
0.3268770335659559
0.3687181083172391
0.4187428474555577
0.4764213075168865
0.5379936613159932
0.6086418592578117
0.7098618334276001
0.8488638163787052
0.9722841287295556
0.9074930280696176
0.6300384962366806
0.2092801999560824
0.2145358519972433
0.2266898629345167
0.2347570492377527
0.2441337550456289
0.2569054851193135
0.2743860702117703
0.2984869090750622
0.3324212103454703
0.3773788624424254
0.4317885570320554
0.4922766554078996
0.5581203313505708
0.6413636761228044
0.7578149887178479
0.9035199256169124
1.0081165491523791
0.8906273895079281
0.5712905978420068
0.2098298347354163
0.2153803021672319
0.2285319629561471
0.2370732859095178
0.246677563020781
0.2594631662568967
0.2773764819719713
0.3026939385203921
0.3384972002255679
0.3858809181844494
0.4436754120900581
0.5073806414291991
0.5764583046065267
0.6716184619667763
0.8038147758395975
0.9517419283317076
1.0059267498335696
0.8371318468835707
0.5145381253954239
0.2102932602919544
0.2161966918801899
0.2297885916504226
0.2388558433207747
0.2487854415414424
0.2617302855791353
0.2807517777555059
0.3070453078081288
0.344154371345689
0.3933665116690182
0.4541936391595461
0.522074851230789
0.5961596558730149
0.6991260333240045
0.8440139298255726
0.9954173869105528
1.0059844665654591
0.7861137024811128
0.4672008833989964
0.2105205973756201
0.2166448826370549
0.2307236132833216
0.2403108852781243
0.2503560875388275
0.2641122931295414
0.2836411127706914
0.3104126674097404
0.3486818389004013
0.4002663197422993
0.4646778082401595
0.5354590358522324
0.6171697627729951
0.7303047369633188
0.888330382005843
1.0416414341532438
1.02373344179942
0.7614583665832821
0.4365301001638146
0.2108190207209291
0.2173865889047188
0.2316952752453602
0.2414262242701756
0.2516670945297092
0.266113846449967
0.2859332120451557
0.3137188310226643
0.3533338787673299
0.4075120943734276
0.4732224316886207
0.5469066160187568
0.6377984366248391
0.7594762892662685
0.924906943188048
1.0644103930719475
1.0174204640415865
0.7353320533024866
0.4158534917238285
0.2106263898216741
0.2180740849739326
0.2325063571057032
0.2423490715563268
0.2529700733109992
0.2675250062114234
0.2879661946308142
0.3175015429506422
0.3578089364359718
0.41329121139526
0.4815429477536862
0.5609110696494688
0.6599489841542834
0.7852308914489697
0.9551323609852468
1.0617990646119526
0.9744572400748795
0.6951009052068117
0.3958471961997515
0.2099107471723201
0.2184240347403029
0.2329920822467814
0.2428944620732186
0.2540454646226179
0.2685987601921593
0.289677340622249
0.3210247349037316
0.3622998459541325
0.4184550064589978
0.4893315460129723
0.5725928260092797
0.6746775568088202
0.8081894484056592
0.9884512744575954
1.0614667692671675
0.9345460189562478
0.6574388285060967
0.3778375423099116
0.209304648200276
0.2185372573965185
0.233746260768022
0.2436217666974289
0.2551704225818336
0.2700113974502509
0.2915656505614787
0.3237945235380396
0.3671578850936429
0.4253767075830086
0.4971821257944439
0.5819978645231707
0.6863010412726109
0.8325685348970447
1.020415478557653
1.0727895936663814
0.92385562880689
0.6342282960760661
0.3620885021687732
0.2091618639932771
0.2187771330964528
0.2348728087624814
0.2445982924712831
0.2561379555644931
0.2714603462202078
0.2930270970930421
0.3254146667873774
0.3705145372550486
0.4308779625507883
0.5046306262982566
0.5922007798038794
0.7010056086854671
0.8574938309262942
1.0462602743686642
1.0891954818262148
0.921832092317322
0.6167718433236326
0.3534674472773533
0.2091593492757398
0.2188974798944769
0.2354398372304524
0.2451821665750228
0.256600591802058
0.2724202665083465
0.2944877684394137
0.326823750042734
0.3728345455114281
0.433921680478707
0.5085405730860143
0.6004195341291807
0.7131900057499165
0.8776781456093607
1.0634663640371151
1.097402270208662
0.9214315024377748
0.6038103603683612
0.3447538841875294
0.2092934516017255
0.2189148156644866
0.2355641391088516
0.2458910479746466
0.2574565787164628
0.2732170213565082
0.2956184156486514
0.3283268565710263
0.3761730691768152
0.4385755461603678
0.5138791394985665
0.6083303905059019
0.7215588698401394
0.8919925755116034
1.0776802951655828
1.1054068849109724
0.921652317976086
0.5937505506706294
0.3357098128169151
0.2096211678522708
0.2192308164311328
0.23627795326131
0.2470157109240686
0.2583212187803787
0.2738821165328207
0.2964985442217591
0.3298535421276225
0.379540970044546
0.4430493753467779
0.5200680435392268
0.6144469999142852
0.7274624889400739
0.9051875656685416
1.0956074034642445
1.1142543378789724
0.9154518242378422
0.5866606939876545
0.3322789380102546
0.2101329438306259
0.2195790413851211
0.2367973677896356
0.2477322463587832
0.2584015337150627
0.2743313587475042
0.2972757793974198
0.3309093658632969
0.3817263492393988
0.4453309236692576
0.5227264184358603
0.6194689863185759
0.7370074892086734
0.9185594463605304
1.10747140692291
1.118559189647082
0.9115693761504412
0.5833159752918111
0.3313405391884996
0.2106315321120918