/*--------------------------------*- C++ -*----------------------------------*\
| =========                 |                                                 |
| \\      /  F ield         | OpenFOAM: The Open Source CFD Toolbox           |
|  \\    /   O peration     | Version:  2112                                  |
|   \\  /    A nd           | Website:  www.openfoam.com                      |
|    \\/     M anipulation  |                                                 |
\*---------------------------------------------------------------------------*/
FoamFile
{
    version     2.0;
    format      ascii;
    arch        "LSB;label=32;scalar=64";
    class       volSymmTensorField;
    location    "0.002";
    object      tauij_LES;
}
// * * * * * * * * * * * * * * * * * * * * * * * * * * * * * * * * * * * * * // 
 
dimensions      [0 2 -2 0 0 0 0];
 
internalField   nonuniform List<symmTensor> 
13597
(
( 0.139978796917745 0.0287710352548337 -0.0351375226732294 0.0897003703860262 0.0316963991379164 0.0801267777509397 )
( 0.1431939328624328 0.0295174293641231 -0.034776896268861 0.0877236254973821 0.0287922747080927 0.0750389099024289 )
( 0.1476591995405159 0.0293932495653284 -0.0336479982696409 0.0838837357518306 0.0231571948888543 0.066691645212069 )
( 0.154316136552653 0.027287728443236 -0.032817209245583 0.0824169313014179 0.0174825741726522 0.060189137778685 )
( 0.1614537325535745 0.0243010475871308 -0.0326669914649101 0.0831671740359954 0.0139978532408968 0.0578173339149508 )
( 0.1677188344204566 0.0211226567724259 -0.0322629183157243 0.082777009024948 0.0119239736074319 0.0569279700382369 )
( 0.1748522067446865 0.0168532586018047 -0.0317404415056238 0.0818483599465491 0.0110182178441924 0.0575182602361494 )
( 0.1832726940355068 0.0115795044465563 -0.0308870439680158 0.0804487274802292 0.0112456558298315 0.0603812023353951 )
( 0.1914795119340668 0.005670335341707 -0.0298151845553569 0.078935242700051 0.0121784505751117 0.0646906122672232 )
( 0.1994029384391646 -0.0008955720414877 -0.028398004710955 0.0763447827309355 0.0139106846502769 0.0703348499019376 )
( 0.2079036937983695 -0.0081244856917331 -0.0262058288181492 0.0729348531573418 0.016830015936447 0.0786037843633833 )
( 0.2168568084018758 -0.0158236218850145 -0.0240856432690675 0.0709536505875385 0.0199356946673373 0.0891317321006685 )
( 0.22552955233698 -0.023629973277082 -0.0213558084203246 0.0692483743927685 0.0232668094781407 0.1011488365245758 )
( 0.2336474978927811 -0.031057598531058 -0.0176324041710983 0.0682732008285588 0.0269483083944453 0.1147051540805358 )
( 0.2413137828022888 -0.0379310854930019 -0.0134480326274988 0.0687562960354569 0.0306439653142531 0.1293621623607578 )
( 0.2492646510472941 -0.0440330308139027 -0.0086580714931885 0.0702829976374846 0.0341510819053316 0.1446459292791786 )
( 0.2567130132658008 -0.0488168897891674 -0.0035566094941775 0.0720481895968807 0.037029546837838 0.1598244783832318 )
( 0.2625204146558378 -0.0522324488759522 0.0012981883125775 0.0746120583975102 0.0394259062932289 0.1742508443870364 )
( 0.268876359466478 -0.0551465714757102 0.0057235486131301 0.078991121513416 0.0413644879210546 0.188438302320209 )
( 0.1574022441581303 0.0332377250114291 -0.0349588068479803 0.1017310447141251 0.0279124977147645 0.0706219951030222 )
( 0.1614089552425306 0.0347444917480613 -0.0323529203229537 0.1004023747337803 0.0240595367178112 0.0646554889504146 )
( 0.1643500613185221 0.0365963084747105 -0.0282165946736715 0.0956429042018423 0.0174567056645057 0.0562188863856143 )
( 0.1687539465681986 0.0377410821280531 -0.0239695197183739 0.0931317476984441 0.0120041467789567 0.0526962052846824 )
( 0.1725788473199823 0.0372022897649708 -0.0199914373168275 0.0914904295902282 0.0095236603083005 0.0532596939172616 )
( 0.175329645643389 0.0356095370464573 -0.0154777692408956 0.088527774486027 0.0086253141833613 0.0558880117620613 )
( 0.1780399465687099 0.0329637267204559 -0.0108987572572733 0.0843776501819429 0.0091378790145144 0.060817167741598 )
( 0.1813766860584203 0.0294746562184938 -0.0053400073686258 0.0796940044366464 0.0113433140952437 0.0689019248375835 )
( 0.1849895996031464 0.0253472554895036 0.0006393723043972 0.0749428732942446 0.0144468986156185 0.0792469542669675 )
( 0.1871911937669631 0.0208537732870458 0.0067678264805944 0.0695130246952352 0.0180719657218918 0.0908608699481782 )
( 0.1895641417835707 0.0162301875756583 0.0136830172973764 0.0640627598853788 0.0228794915774395 0.1053439503297029 )
( 0.192139822530729 0.0118142307345519 0.0205970806009531 0.0601911320301535 0.0277487306010529 0.1223849147533142 )
( 0.1943408753166536 0.0084069750105416 0.0274977697012213 0.0577175062084293 0.0320213933077021 0.1398242338427593 )
( 0.19743437068287 0.0060818293404713 0.0342240392450856 0.0571832301067125 0.0358560586277547 0.1577026990977061 )
( 0.201189330862185 0.004788535134669 0.0398962753666897 0.0586884502563022 0.0394310459903623 0.174314115729526 )
( 0.2054540184012772 0.0042689118820639 0.044098539896032 0.0611557476686587 0.0420549470832351 0.1883278144695624 )
( 0.2095910861276432 0.0044477954592298 0.0470700204639951 0.0638411866371411 0.0431190834443832 0.1996782781774151 )
( 0.2139046804053165 0.0056712098657229 0.0493311205404605 0.0669192417040955 0.0433990604383128 0.2090411806821195 )
( 0.219540760788833 0.0070061033776082 0.0501817720864124 0.0709317088486369 0.0436655009867337 0.2166890389113254 )
( 0.1698328287517465 0.0335778134806603 -0.0258456398186881 0.1143187756205854 0.0214698052441864 0.0625094224734481 )
( 0.1705898440288742 0.0344257044955043 -0.0204987581547561 0.1140095806647066 0.01645484864501 0.0569540211452506 )
( 0.1676778386602142 0.0367141426690845 -0.0137133914251223 0.1088864822403762 0.0097815028821158 0.0515299682667668 )
( 0.1639372244050684 0.0383948798165713 -0.0064636518230115 0.1048712312892637 0.0055234150949712 0.0531854390053037 )
( 0.1600740858621445 0.037859946493988 0.00056924196191 0.1011317163041775 0.0046979992504453 0.0588564647181897 )
( 0.1562875241355658 0.0365699762530583 0.0081707571106803 0.0959720478146716 0.0059739239287057 0.0672535654008716 )
( 0.1522234899433595 0.0345046988834309 0.0156113502027983 0.088838809625965 0.0087330082057123 0.0780128654317228 )
( 0.1478139694104142 0.0327262815989611 0.0232860565914788 0.0820626721338668 0.0123943030867277 0.0910044599936392 )
( 0.1446857145640825 0.031516931569081 0.0310613343921073 0.0755252376583985 0.0167149716642208 0.1057375854829946 )
( 0.1424093495938604 0.0302064478718853 0.0387216975027166 0.0686841315421407 0.0210791785515264 0.122364055205467 )
( 0.1407799682027279 0.0301172817366842 0.0456545171373972 0.0635207065714233 0.0247937980396076 0.1395046640760252 )
( 0.1406176811316548 0.0313015300929512 0.0514712097262198 0.06044004078735 0.0278088518900711 0.1564818894951828 )
( 0.1422464175531124 0.0337601371601929 0.055597391243274 0.059393599538883 0.0294369762695263 0.1718149741713101 )
( 0.1450727486730226 0.0373015542334715 0.0574535417814182 0.060330431632295 0.0296349343787779 0.1838576891696856 )
( 0.1482242084989424 0.0409211649703881 0.057345380129316 0.0625011664603655 0.0290533918410305 0.1922522810162616 )
( 0.15161177217976 0.0445009532301649 0.0556017712600877 0.0649350936077033 0.027777006196767 0.1968904952400837 )
( 0.154692976898005 0.0480314068439844 0.0527335894486488 0.0672333813773174 0.0257010483038624 0.198372708379126 )
( 0.1579322030673864 0.0516572109029307 0.0487809792841433 0.0695254395623608 0.0231738033917142 0.1975194185137875 )
( 0.1623479151259155 0.0547403260233211 0.0437592894160254 0.0716861355623258 0.0208310346738914 0.1948243895710538 )
( 0.1698457787538375 0.028174311518675 -0.0131341411753121 0.1265887920058684 0.0125410504119252 0.0580976072382441 )
( 0.1647248700791975 0.0273470099440526 -0.0064332860750153 0.12726779007307 0.0068280134309116 0.055417630269969 )
( 0.1538173398167783 0.028549631820263 0.0009855775002377 0.1222949027363152 0.0020469446248815 0.0556004970867418 )
( 0.1417253913768054 0.0294984661311374 0.0092215624696923 0.1169881118446638 0.0005905670181474 0.0637130215871311 )
( 0.1315912901399281 0.0286512127657101 0.0170746242224918 0.1118114007507082 0.0018987575940477 0.0752525672104951 )
( 0.1232174201136148 0.028193046737888 0.0249028790753076 0.1053056421705534 0.0049934506947324 0.0882570764059989 )
( 0.1162907955667235 0.028334814215829 0.0326492459437193 0.0974723176881271 0.0087858921926445 0.102831329384854 )
( 0.1107937403656657 0.0294754905680598 0.0395333413807856 0.0902292822230242 0.0124142312363506 0.1181555652413728 )
( 0.1077666073608441 0.0322182383894827 0.0451676069381246 0.0836246846436138 0.0156467346216584 0.1329081599742227 )
( 0.1064569547651828 0.0359121319290925 0.049678443916718 0.0777061798572876 0.0177588841236354 0.1466241950097729 )
( 0.1063743771119433 0.0409712427925003 0.0517934427274625 0.0740221356104563 0.0180382916433033 0.1572217278679658 )
( 0.108778788031324 0.0471030199422792 0.0517370111351401 0.0722532685690964 0.017031198942991 0.1650959518149396 )
( 0.1124249125498431 0.0532841658080484 0.0492973502071207 0.0718972904337493 0.0141699992190796 0.1696563675420745 )
( 0.1164583140877116 0.0595808443089702 0.0448126925220851 0.0731104945298533 0.0106914539756521 0.1702325045230688 )
( 0.1198978678884084 0.0648820791903432 0.03972706556404 0.0748190109476127 0.007384714453258 0.1679135570247917 )
( 0.122726321471692 0.0691207255219238 0.034398477764519 0.076275577564935 0.0039864578189643 0.1639439889054195 )
( 0.1253234669739191 0.0726396944659163 0.0290071142928973 0.0774923848066881 0.0009439059563472 0.1587874402688199 )
( 0.1277213924798359 0.0758393111893546 0.0231403371668066 0.078623445369082 -0.0019700399539382 0.1527121100752237 )
( 0.1306578322689845 0.0788078974129684 0.0168261170558825 0.0794094387575854 -0.0046900487107388 0.146407990438335 )
( 0.1605271734365768 0.0174436699110048 -0.0018430638229855 0.1391226194231805 0.0032068851741399 0.0600031944678783 )
( 0.1483586838196489 0.0143698736674136 0.0039649746952844 0.1394165818676953 -0.0018631395730837 0.0615828218102504 )
( 0.1320221306080058 0.0150554964209194 0.01080785275028 0.1347579746860391 -0.0039052363992227 0.0675408923525515 )
( 0.1174725868348925 0.0160335849838411 0.019041270194449 0.1293795880110922 -0.0024479072353416 0.0809780494474391 )
( 0.1075636682339069 0.0162888866012591 0.0263953438975444 0.1239083630737799 0.0004402781866152 0.0954905587656441 )
( 0.1009287077553281 0.0179544397453228 0.0331493491835596 0.1172394193289684 0.0041371997284046 0.1097204303352608 )
( 0.0968509708907169 0.0209769251190953 0.0392010382874203 0.1098950768993947 0.0074342896671065 0.1237435566307994 )
( 0.0954305266241158 0.0259035832336046 0.0433492748610052 0.1037362428434261 0.0096235193419197 0.1357981068934808 )
( 0.0954490527246019 0.0322218536633377 0.045203291289156 0.0986672627361651 0.0102085698967014 0.1440429013977783 )
( 0.0965792299347516 0.0394560400409606 0.0450045280173078 0.094629415989998 0.0089443607074998 0.1482546685128949 )
( 0.0989906310454062 0.0476555511017169 0.0424958455150912 0.0920152256483999 0.0058594080639428 0.1493824778980262 )
( 0.1027068025479839 0.0559337752356336 0.0383123551461537 0.0909501175887829 0.0014959558049888 0.1484100214481048 )
( 0.1061315894435963 0.0633452093740572 0.0325352979006305 0.0912178963867624 -0.0033703737318418 0.1449369819345134 )
( 0.1092700827912196 0.0699930019221732 0.0260120906856701 0.0924401047344266 -0.0077793595968792 0.1398950307255328 )
( 0.1118253670375569 0.0749624416558831 0.0201045867534602 0.0939978183823308 -0.011501686965724 0.134457300928754 )
( 0.1139585902130619 0.0788896729522507 0.0146796140825179 0.0953656915080097 -0.0147178546208687 0.1293827498917426 )
( 0.1156775840277599 0.0821224675022471 0.0097155508046063 0.0964280268138928 -0.0171088737376116 0.1251636687045359 )
( 0.1170996982713346 0.0847861978088417 0.0050767470553693 0.0971938167768992 -0.0190897310249489 0.1221982896093555 )
( 0.1187625058326177 0.0871927898656159 0.0003318954074657 0.0972334166795966 -0.020869937932548 0.1206804850123525 )
( 0.1456005656955022 0.0024323055223157 0.0055716545765904 0.1505912131347046 -0.0052774881152302 0.0681548763738781 )
( 0.1298335051746605 -0.0016156810306905 0.0099702926963868 0.1511313942935162 -0.0089720038167622 0.0733486400956604 )
( 0.1134964932136935 0.0001088645246024 0.0168931948106297 0.1473519749445226 -0.0083486306101159 0.0836431328700777 )
( 0.103073246404182 0.0027994241519224 0.0253354497768792 0.1426308674319267 -0.0046888186239928 0.0992958276205073 )
( 0.0981899848935047 0.0055677848676974 0.0320985731244615 0.1371822391483043 -0.001052039710867 0.1130783059133222 )
( 0.0968946896814224 0.0099171777890971 0.03780372667468 0.1311662417031255 0.0021608742094697 0.1249144398005113 )
( 0.0969363759726648 0.0157901295629146 0.0416961309550868 0.1251580344981656 0.0040873730102848 0.1338373360479804 )
( 0.0987891925281991 0.0234728030763589 0.042731670779332 0.120809270575706 0.0042879676769716 0.1390266354817187 )
( 0.1006864656921512 0.0315768319586294 0.0412277856506986 0.1179432288872049 0.0023741646829782 0.1399890738627136 )
( 0.1023277930603697 0.0407204314151236 0.0376795944821011 0.1159229404767182 -0.0014663127971844 0.1376511071453977 )
( 0.1043481465996805 0.0502758362389065 0.0326469323871166 0.1148403993474309 -0.0064198385584783 0.133610661149562 )
( 0.1057271936168635 0.0585371038726476 0.0265653748888044 0.1149095006015312 -0.0118771275776795 0.1276750349014478 )
( 0.1072291154439882 0.0661984689248578 0.0202540834650485 0.1159158015019757 -0.0165883151576313 0.122231311282668 )
( 0.1089621972562183 0.0728723559449145 0.014421798343498 0.1172610262337657 -0.0200209843947418 0.1181717627806843 )
( 0.1102720330292694 0.0774738340833006 0.0097094022335039 0.118992834057318 -0.0227428528083793 0.1153685800501597 )
( 0.111227109089874 0.0809697428677252 0.0060036321389714 0.1204599168019938 -0.0245786664633274 0.1143843775681107 )
( 0.1120588838173017 0.084074292291834 0.0027502463432159 0.1217046654201946 -0.0259092514704656 0.1154353387229753 )
( 0.1129115984224838 0.0867913880558895 -5.317555804654553e-05 0.122436019232749 -0.0269659057681119 0.1183824002123785 )
( 0.1140537864770641 0.0893507070000926 -0.0029670981735243 0.1219656373871407 -0.0278672016781569 0.1238658575916351 )
( 0.1298784929821586 -0.0145224228679356 0.0099538529634199 0.1615834987206839 -0.0127865243442535 0.080607216882712 )
( 0.1161655981758494 -0.0175687187996006 0.0144995176720683 0.1629537592203263 -0.0147337188534453 0.0882793154210168 )
( 0.1055122840483616 -0.0133383238455466 0.0226883930620877 0.1603511804362673 -0.0116935502176383 0.0997563353496298 )
( 0.1015228062389761 -0.0080278621939215 0.0313666762503661 0.1564460077851519 -0.0068246764364287 0.1138142170357755 )
( 0.101825766613429 -0.0027576850736946 0.0374172379583686 0.1517338797370977 -0.0031373464105363 0.1244604546710195 )
( 0.1045638150694746 0.0040835235363394 0.0414164691476033 0.1471815756876484 -0.0011524626619827 0.1319332287175062 )
( 0.1067224627024126 0.0120968681024155 0.042744716373246 0.1428404969823247 -0.0011500000413062 0.1353301252048726 )
( 0.1084438321386659 0.0211146438529798 0.0413081909397679 0.1402161556002658 -0.0030020601860136 0.1346712876274176 )
( 0.1091230037597618 0.0300485342521433 0.0377634817164178 0.1396753036270567 -0.0064779165066136 0.1309794015063159 )
( 0.1086707354684212 0.0399378450401101 0.0324735028229663 0.1392723300515088 -0.0108900412473913 0.1254034298834402 )
( 0.1081504601391297 0.0501934650879699 0.0261964448611774 0.1399530061958512 -0.0157534690532444 0.118946836071653 )
( 0.1071275329346176 0.0589648859731849 0.0200317716904214 0.1414931546347367 -0.0204624463877418 0.1129536285597064 )
( 0.1068881905609805 0.0667510132154519 0.014767819223007 0.1431688043400765 -0.024036646454854 0.1099019385335557 )
( 0.107301680208818 0.0733898271722644 0.0104861187342166 0.1450974030727018 -0.0263439581031879 0.1095968760085188 )
( 0.108144197343103 0.0785133308467925 0.0071871337592503 0.1470492152894145 -0.0279800745867965 0.1114395385084607 )
( 0.1089575735037492 0.0826546812056599 0.005045994725254 0.148959516912629 -0.0291076786430432 0.1154628470571698 )
( 0.110035220821426 0.0863732781560185 0.0033094175604111 0.1502932551799108 -0.0301053434704894 0.1213491527059074 )
( 0.1116618738792674 0.0901008149097826 0.0016075070894494 0.1507717019562886 -0.0311053074605914 0.1295384984552002 )
( 0.1139356747405705 0.0938585382406813 -0.0002854410735552 0.1498682434247274 -0.0322375931409878 0.1407027235915271 )
( 0.1203595269062255 -0.0300819254559094 0.0139630029667311 0.1726111388197392 -0.0186358504914808 0.0940396907630227 )
( 0.1120251077236751 -0.031383903634529 0.0202065646348412 0.1745581904655981 -0.0185380826460128 0.1027276266456306 )
( 0.1080594246230323 -0.0239431039195811 0.029746996074469 0.1727338686477079 -0.0138368141372799 0.1131451453334523 )
( 0.1093914710042517 -0.0157152395657104 0.038320873406671 0.1702636222502796 -0.0088190615075919 0.124018352112907 )
( 0.1124554990395801 -0.0084419539954281 0.043167400487527 0.1670078308243883 -0.0060884632118004 0.1308755366141132 )
( 0.115094825687909 -4.004117481098621e-05 0.0448945371835765 0.1637139086065312 -0.0056277528024881 0.1340434339014322 )
( 0.1155006957557844 0.0092230523367207 0.0437514270216283 0.1609487443468376 -0.0071619597354183 0.1330532427952443 )
( 0.115134036837742 0.0186061356969337 0.0402062254321424 0.1605888260235136 -0.0100445649523629 0.1285653844309531 )
( 0.113640437963761 0.0282715502914135 0.0349027786109137 0.1626957382348397 -0.0143261926226524 0.1220069379609159 )
( 0.1100419282678845 0.0390286424451075 0.0287154675510566 0.1640102009634265 -0.0184032015154462 0.1148585573215474 )
( 0.1072768919383425 0.0499417010582542 0.0226920141381262 0.1665032973492017 -0.0222203885294201 0.1087124123443878 )
( 0.1056322863538318 0.0599006146311762 0.0175893838093409 0.1694446656473039 -0.0259117541760709 0.105841179910604 )
( 0.1049005340987152 0.0685577315517555 0.0135343280793092 0.1714742264715932 -0.0282132722380732 0.106236357423935 )
( 0.1051253320737473 0.075854676154444 0.0107782503410801 0.1740917474916191 -0.0295399444324331 0.1094531597944437 )
( 0.1060844095914755 0.0817178521984638 0.0089684963718664 0.1764414676932171 -0.0308040948071051 0.1154710544569359 )
( 0.1076824805970941 0.0870999073177756 0.0077673558153504 0.1786381233344078 -0.0322628132408614 0.1236091185388152 )
( 0.110189183668937 0.0924651483640377 0.006717590422932 0.1799286375285811 -0.0336059451396058 0.1334472766029919 )
( 0.1136879975115424 0.0980810465845382 0.0055237076374627 0.1799931305060827 -0.0351259984473632 0.1460398762622527 )
( 0.1181119439248009 0.1036660301546339 0.0040745815588023 0.1784451254938917 -0.0370386828068014 0.1615617747857935 )
( 0.1182734938318636 -0.0434361390626448 0.019516371440003 0.1829578537862364 -0.0228387086872848 0.1069039563777795 )
( 0.1157451796052353 -0.0422401813317009 0.0282396853275099 0.1857417459703616 -0.0212272446738317 0.1150953705411601 )
( 0.1169247159204388 -0.0316071280122299 0.0385929647709155 0.1855709176258007 -0.0157615109951181 0.1234910546605434 )
( 0.1205248893744547 -0.0210187158276614 0.0459536380184977 0.1845685589284783 -0.0113227040543173 0.1312715962892228 )
( 0.1232834443947482 -0.0119236807217933 0.0489990624335246 0.1823894553534348 -0.0098016309830047 0.1353429672584247 )
( 0.1234629545257665 -0.0030951173899359 0.0481043888590303 0.1805464192996387 -0.0107010443064688 0.1347113416013606 )
( 0.1204541478085406 0.0066145831744908 0.0444974274523016 0.1799400427712257 -0.0127544136616427 0.1298263947654914 )
( 0.1166607210530766 0.0171213461142336 0.0389645831022024 0.1814150236214148 -0.0158259691654835 0.1230144450740794 )
( 0.1122660028009515 0.0276807405393299 0.0324329473459075 0.185264296239329 -0.0200999162227634 0.1149483012835048 )
( 0.1073247981968872 0.0395360601523455 0.0263122890192422 0.189408248171319 -0.0234725487129643 0.1076019286932784 )
( 0.1036503253058142 0.0513524145016216 0.0214487348544355 0.1934029648627732 -0.0263164115427334 0.1032515861877755 )
( 0.1022341590783665 0.0623412709419708 0.0177211930394549 0.1970267807306492 -0.0291596035509748 0.1033831354344796 )
( 0.1020181944135873 0.0723350733553779 0.0149091579292764 0.1997130053564864 -0.0308754989846564 0.107054318553297 )
( 0.1033022137577102 0.0811861215390439 0.013161179613415 0.202887782232817 -0.0319978499599689 0.1137994547106178 )
( 0.1055786891097956 0.088601562000118 0.012269391674887 0.2057501742109773 -0.0336086325235837 0.1232150698349476 )
( 0.1086474810751588 0.0957932648034041 0.011550151195234 0.208142065949422 -0.0357543311732506 0.1348407251921541 )
( 0.1131246458465153 0.1033412249513441 0.0105804085727426 0.2096820138977224 -0.0376667563840994 0.1478623669549004 )
( 0.1190362915753352 0.1112126824855487 0.0093467784262615 0.2095148592279194 -0.0399900602903012 0.1637378158414475 )
( 0.1264085750070319 0.1192634228385625 0.0076984056274108 0.2073636899840159 -0.0427520193245145 0.1829362442933068 )
( 0.122274222040238 -0.0532970416587406 0.0278585382097227 0.1922903810484179 -0.0255250727968693 0.1192345779749003 )
( 0.1240264618995867 -0.0483298588243606 0.0386249980388976 0.1960888943731065 -0.0226874835369192 0.1258784223098387 )
( 0.1267711036100765 -0.0353223243291807 0.0480937115537485 0.1976905679405221 -0.0173538444001102 0.1318967269306947 )
( 0.1297478247370985 -0.0242453763077206 0.0530161655711384 0.1977394038147281 -0.0142647220046369 0.1372106750733177 )
( 0.1296949794552916 -0.014512780164506 0.0531663849135319 0.1963669145979557 -0.0137953583155415 0.1378966152515048 )
( 0.1268806669894181 -0.0050991399107858 0.0497192509335276 0.1965774268122989 -0.0153122515987464 0.1342901846104274 )
( 0.1211842023657731 0.0049510769241875 0.0440507438421741 0.1992805447174075 -0.0178641270231827 0.1272495506267725 )
( 0.1139081950003661 0.0164760252609236 0.0371977895842866 0.2037804404538331 -0.0209037257024359 0.1184778047863406 )
( 0.1073648915280954 0.0282976755152802 0.0308598395530719 0.2093245870970277 -0.0241474609824913 0.1099371200778458 )
( 0.1018315421142775 0.0408794202044193 0.0258575491603094 0.2152493922867134 -0.0269454141103556 0.103365477915972 )
( 0.0985720069003292 0.0542347714172803 0.0219811864783646 0.2199005494496282 -0.0289477085327422 0.1008262211918332 )
( 0.0982800800239741 0.0671391381866993 0.0191027480479838 0.2234797695647028 -0.0308050142336634 0.1032090200815714 )
( 0.0995920766495324 0.0785501616306512 0.0172994709687544 0.2271996529335729 -0.0325943763631302 0.1099772189286833 )
( 0.1026602128756141 0.0890078549990511 0.0161609596094335 0.2308446267922411 -0.0345353240291457 0.1202765334724617 )
( 0.1069240459749653 0.09887520968902 0.0154584626532853 0.2342636491387465 -0.0368641367508787 0.1325906403074493 )
( 0.1121924192512948 0.1085077367696092 0.014733796205616 0.2374722355141728 -0.0396360491208375 0.1467112709993679 )
( 0.1190944098461272 0.1184910534772242 0.0136340827715802 0.2396788487878323 -0.0424646660187413 0.162676746758603 )
( 0.1275364400736325 0.1287442623650866 0.0120723685545129 0.2395697670077935 -0.0455650150121152 0.1813423925568288 )
( 0.1379139755202272 0.1392482596466618 0.0097893659277844 0.2368010937742762 -0.0490710798379411 0.2033100198017536 )
( 0.1292415000199397 -0.0588744827109479 0.0381776012271073 0.1996955718200762 -0.0270862804083475 0.1303779746346592 )
( 0.132435908048611 -0.0509190581293242 0.0490854364785269 0.2039233176417983 -0.0235968685221238 0.1347706170435366 )
( 0.1349806833133544 -0.0366893310886724 0.0566739471789116 0.2076713770424701 -0.0191309405125933 0.1395817547332191 )
( 0.1355276762766464 -0.0256662880318811 0.0582929855571972 0.2094389358807057 -0.0176781361814084 0.142399732752497 )
( 0.1315622165062285 -0.0159945733272165 0.0550451508550684 0.2094925799436245 -0.0180730549703433 0.1394908849448161 )
( 0.125428478968216 -0.0058546246151559 0.049503630779582 0.2118905164397923 -0.0194034733656389 0.1335998563668925 )
( 0.1177545890723504 0.0046965517600225 0.04273127209904 0.2181401924920336 -0.0219606039135665 0.1252062330900517 )
( 0.1091598550662971 0.0164462441060638 0.0357029482653846 0.2258873197373007 -0.0245031945001743 0.1150092236727626 )
( 0.1016072436928324 0.0294452755707889 0.0299871178477154 0.2331410149955624 -0.0268607488765576 0.1059771160152615 )
( 0.0957787602898709 0.0432868808101157 0.0260055950503353 0.2400483991796667 -0.0291844581765087 0.1005874620345566 )
( 0.0936769543177244 0.0583443936579648 0.0231184090897708 0.2455531982842841 -0.0308751100427488 0.0999281528889623 )
( 0.0950749260073721 0.0736595420093371 0.0209464532553554 0.2499014350856919 -0.0326022191499084 0.1050636215577697 )
( 0.0985063599155854 0.0869995231325194 0.0196849981325159 0.2542496097082383 -0.0347645961193644 0.1145956401974881 )
( 0.1035525836857319 0.099427457201926 0.0188030388397068 0.2583982318421512 -0.0374870958875724 0.127624458600626 )
( 0.1100121482854561 0.1119273265417513 0.0179531464912194 0.2628163303725181 -0.0404759350633531 0.142679240480481 )
( 0.1176143460158699 0.1240950828562904 0.0170285638918159 0.2672033167245241 -0.0440086486041711 0.1592619591977417 )
( 0.1268498244293908 0.1366335972592834 0.0155384930491009 0.2701651700903194 -0.0478760014261383 0.1780368519311114 )
( 0.1380613374670941 0.149423063326552 0.0131285230659921 0.27023620055266 -0.0516513666027592 0.1988040916151688 )
( 0.1520250470933057 0.1628381094591831 0.0094322129097538 0.267303077733086 -0.0555823081362514 0.2225692264372143 )
( 0.136621021135485 -0.0611407378142669 0.0499892114977757 0.2064965429757631 -0.0284152982500589 0.1397854166624394 )
( 0.1399650032103971 -0.0514125045787479 0.0595376845846029 0.2112766409832343 -0.0251001136966584 0.14290079595279 )
( 0.1406478621312243 -0.0370270664504504 0.0632915727594137 0.2165000728765881 -0.0218860378573873 0.1459285126780492 )
( 0.1374171030003211 -0.0265111137882466 0.0615459377968268 0.2197884256620385 -0.0214068799723936 0.1462990246349546 )
( 0.1301308564607098 -0.0168909949657715 0.0556504394990873 0.2224412076351589 -0.0219762882246016 0.1413057158126653 )
( 0.1205420340690798 -0.0062473225318005 0.0480589250888263 0.227624426371703 -0.0230019742319442 0.1327512031550471 )
( 0.1114610031339026 0.0052141665503303 0.0406091179805504 0.2358056969822562 -0.0248237334808964 0.1223176846529656 )
( 0.1027982318812404 0.0180948573377485 0.0338992505962936 0.2454682024770454 -0.0266930741663004 0.1113871121552239 )
( 0.0948156662318805 0.0320502660504235 0.0293104267145608 0.2547951932562693 -0.0286126398145736 0.1026237223810846 )
( 0.0901848420028976 0.0476816171204222 0.0261432631337555 0.2631248829215198 -0.030284995845952 0.0983689509948663 )
( 0.089647576030129 0.0644400672145136 0.0239920406721313 0.2700409423368571 -0.0319186067471635 0.0996732676793075 )
( 0.0928597030482076 0.0812974098093496 0.0226725142857288 0.2761357388516068 -0.0344280391427235 0.1077811130503773 )
( 0.0984978787186728 0.0971928663623883 0.0217226157853782 0.2814010050346812 -0.0372248570439002 0.1201164789299147 )
( 0.1057106886535582 0.1121828372022424 0.0208006731249029 0.2864486022310018 -0.0408359735698082 0.1362042654906545 )
( 0.1145044681294027 0.1270542822196455 0.0197666662197822 0.2922875588947944 -0.044682257095133 0.153934493568747 )
( 0.1242497353207057 0.1416252531952048 0.0183143175597353 0.2980303106729582 -0.0488555213233083 0.1726085539295306 )
( 0.1356643117478386 0.1566108550674515 0.0158091577829649 0.3019715278422213 -0.0534960916726561 0.1931397424424483 )
( 0.1505726539087732 0.1726825007611944 0.0120972414022499 0.3025402479615116 -0.0579760070052653 0.2156197526555577 )
( 0.1696239986204935 0.1900189824118577 0.0067569947592315 0.2998502294018977 -0.0623003438261421 0.2408096813131824 )
( 0.1441872895614256 -0.0610094785847594 0.061799774891446 0.2123497355415108 -0.0300577360392789 0.1482890095611369 )
( 0.1457917726755 -0.0498607017464947 0.0683977897732556 0.2185265773970699 -0.0274666583527378 0.1507342303729867 )
( 0.1429149904883051 -0.0363909597765456 0.0673160001599033 0.2249745612589365 -0.025141971577056 0.1514578660682295 )
( 0.1360856151393652 -0.0265994293545896 0.0626531030201039 0.2290101065508617 -0.0244391530068192 0.1491315219014751 )
( 0.1259633143184137 -0.0168949310447396 0.0546779350068089 0.2344522893596819 -0.0249557096869149 0.1419433660214493 )
( 0.1139017628212428 -0.005620759047296 0.0459539448752963 0.2424710477031465 -0.0257939325002303 0.1314203983527641 )
( 0.1033275721098476 0.0068328828062563 0.0384414195615862 0.2525241102193741 -0.0268096259794535 0.1195566725396902 )
( 0.0946872171141518 0.0206922153930018 0.0322634626119037 0.2642825356246284 -0.0280005388441188 0.1079383983855481 )
( 0.0878561426716782 0.0358999718600504 0.0287181575597235 0.2760159607640907 -0.0293664281653886 0.0998061198670261 )
( 0.0851025911991751 0.0529078626247248 0.0267115422023616 0.2854481156763482 -0.0309467479162011 0.0971360270426621 )
( 0.0866786716413261 0.0718161512506093 0.0250604722082588 0.293542069449032 -0.0328455866363468 0.1007326940923276 )
( 0.0919060916635112 0.0904433451696601 0.0242156222930219 0.3012847528975457 -0.0361175329865214 0.1115296030371185 )
( 0.0994188428587241 0.1084372617732778 0.0234157058465576 0.3084094137473963 -0.0400225687547654 0.1271196258580463 )
( 0.1088788975134772 0.1261991965417415 0.0222004942803219 0.3157197183531252 -0.0446558023092038 0.146344064792196 )
( 0.1193963722810884 0.1431138039551391 0.0206614865395375 0.3235275093959877 -0.0493307216190022 0.1655803771250856 )
( 0.1314589019453647 0.1602429187661832 0.0182825312093382 0.3306006555509896 -0.0540326737339518 0.1849212926773463 )
( 0.1465075256110211 0.1789093254613617 0.0145089277959843 0.3362957318742972 -0.0592764074737931 0.2068368860301715 )