/*--------------------------------*- C++ -*----------------------------------*\
| =========                 |                                                 |
| \\      /  F ield         | OpenFOAM: The Open Source CFD Toolbox           |
|  \\    /   O peration     | Version:  2112                                  |
|   \\  /    A nd           | Website:  www.openfoam.com                      |
|    \\/     M anipulation  |                                                 |
\*---------------------------------------------------------------------------*/
FoamFile
{
    version     2.0;
    format      ascii;
    arch        "LSB;label=32;scalar=64";
    class       volVectorField;
    location    "0.002";
    object      U_LES;
}
// * * * * * * * * * * * * * * * * * * * * * * * * * * * * * * * * * * * * * // 
 
dimensions      [0 1 -1 0 0 0 0];
 
internalField   nonuniform List<vector> 
13597
(
( 17.240051205387587 1.6403692585191745 0.01217928191184 )
( 17.236024354515227 1.6863042809124456 0.0143596528431114 )
( 17.239937552337935 1.7818495157549352 0.0165082395505075 )
( 17.250716151167044 1.9060759386206876 0.0184000946968768 )
( 17.260429845678235 2.012064886753007 0.0190472081980587 )
( 17.265897740134385 2.0991291881362084 0.0194653981015796 )
( 17.274772555974263 2.186137170491934 0.0198606830276951 )
( 17.286645035120912 2.278873142774429 0.0194782229757111 )
( 17.30194769744033 2.371985516401414 0.0194891823884384 )
( 17.31922869703102 2.465027547457788 0.0194519278764811 )
( 17.337809916540024 2.567938537554211 0.0203108415402063 )
( 17.362297339494784 2.6711368640142403 0.0220198369978017 )
( 17.38986393373349 2.7721942455283366 0.0240135829376885 )
( 17.41782241530785 2.878573560551388 0.0271259629155909 )
( 17.4469356619595 2.987454331297898 0.0306156823382053 )
( 17.478412033671695 3.0945313929864917 0.0344928775339475 )
( 17.513419755714093 3.196091592686682 0.0391584126391032 )
( 17.55013789140594 3.2964854951629445 0.0450186606197278 )
( 17.58768927113364 3.3998516949014554 0.0524836840215423 )
( 17.11227019832612 1.652229302458346 0.0308806193254588 )
( 17.090301796674492 1.7084425325337596 0.0334072674926907 )
( 17.071463670361773 1.8306625687691644 0.035244886258229 )
( 17.054657233853515 1.9719932700796263 0.0366068218108261 )
( 17.03849912510779 2.081456833388845 0.0357378391130221 )
( 17.021678092026633 2.1830901633535964 0.0352498616289687 )
( 17.009515699836403 2.287017408259149 0.0346709442516278 )
( 16.998579828910856 2.395925870258642 0.0334086887882709 )
( 16.99107991723417 2.5074568983569936 0.0331969013644764 )
( 16.984350548142995 2.6186641520384746 0.0344090893622783 )
( 16.97703535244102 2.741102946868575 0.0369948917665258 )
( 16.970013646165604 2.870045704674017 0.0405973193931061 )
( 16.962453342267118 2.998342410747242 0.0462263070964549 )
( 16.957730115101946 3.129564693814691 0.0526419484991544 )
( 16.95507962567355 3.256876041548161 0.0594772139398752 )
( 16.95408269439728 3.3762119510757764 0.0674178689904564 )
( 16.953913151334344 3.485003249452342 0.0753799109433049 )
( 16.953453452509727 3.5943740358171583 0.0841144006728618 )
( 16.957570635229203 3.702401875010949 0.0939435829030494 )
( 16.988729081974974 1.6566874401554763 0.0519933368654519 )
( 16.94902161335411 1.7199472971090852 0.0569480244217354 )
( 16.908003453212824 1.858796746293836 0.0597111088146769 )
( 16.865912337597422 2.0101839673122184 0.0608528611210114 )
( 16.82668347072136 2.1233566204417484 0.0603580513509785 )
( 16.79164204352301 2.2373737938624942 0.0601918443516801 )
( 16.75996917578261 2.3562745826996743 0.0600727539038183 )
( 16.724809636700112 2.474902796627795 0.0611730227695835 )
( 16.691787892470565 2.599289409286159 0.0635577873150514 )
( 16.65971986575519 2.7333888502248924 0.0665656239508228 )
( 16.62554226458543 2.8725210099769853 0.071642909890582 )
( 16.590364207129905 3.019630378143899 0.0785976864842044 )
( 16.555296468471003 3.1696305280888653 0.0875184865014262 )
( 16.52327496561598 3.311947351797192 0.0970582920698258 )
( 16.495204513882282 3.4405158896148498 0.1061956138760653 )
( 16.47093198863482 3.5540027109661723 0.1154211361647577 )
( 16.446071804589167 3.654912117677267 0.1241199913921379 )
( 16.4206578881174 3.755150021170037 0.1327857039399155 )
( 16.402270446315484 3.859318053290808 0.1417454397735913 )
( 16.869751045357084 1.65214086444045 0.077807475835427 )
( 16.814082738984098 1.7218393452159453 0.0851642754234495 )
( 16.754279784333754 1.8674638899919376 0.0866972177385499 )
( 16.68976612026979 2.023952329687074 0.0863293218436769 )
( 16.627856502181608 2.1434778465225794 0.0869288502591419 )
( 16.57136648586448 2.262531257263615 0.0874425154290106 )
( 16.512736508455276 2.390092759592641 0.0885011001513211 )
( 16.451078494175096 2.518780533866357 0.0911033525498613 )
( 16.393950937218463 2.6532073946514623 0.0947271775789816 )
( 16.337668752123648 2.7979420354131266 0.0988989683031769 )
( 16.2758101219992 2.948777376593688 0.1053309370174988 )
( 16.217496289467597 3.104678307621656 0.1135344797064576 )
( 16.16278030309172 3.2592067721966487 0.122251238968992 )
( 16.106666593035406 3.404315099444728 0.1316369431165142 )
( 16.054469821235458 3.5273662467488376 0.1405126865183513 )
( 16.007613173100584 3.632423406226653 0.1480637621558451 )
( 15.962482988846462 3.727137672612345 0.1546313542816654 )
( 15.915176212423775 3.822381797315773 0.1609449465528602 )
( 15.87084456166022 3.9294561693492938 0.1673747886664246 )
( 16.7590425188215 1.6396850585378235 0.1042725629228361 )
( 16.69123031314992 1.7176890211830371 0.1113047573457926 )
( 16.610884315950642 1.869449158075752 0.1107949011810281 )
( 16.5230795631703 2.024389831765025 0.1088343487109923 )
( 16.440555921552626 2.145800550641856 0.1090564042576268 )
( 16.36122110834127 2.2673657322840413 0.1092818504885702 )
( 16.27560697562868 2.399082462193269 0.1103848493747006 )
( 16.18845282863 2.5336372395770934 0.1130171184589297 )
( 16.10580028332782 2.669508221564345 0.1165944929900057 )
( 16.020792155518947 2.8148483042850034 0.1214989179875195 )
( 15.930450612746414 2.9735568024267005 0.1280025055651381 )
( 15.843326187763068 3.135163158600456 0.135220482288779 )
( 15.759210252811709 3.289876779421185 0.1428465927804801 )
( 15.674821710796907 3.432779535594983 0.1500341776994382 )
( 15.595103409990353 3.548539768317285 0.1558693816862542 )
( 15.519610221891629 3.652152659981475 0.160742836889345 )
( 15.447453512306128 3.7511512057451575 0.165008911569699 )
( 15.376567443694109 3.850792798806353 0.1685756030679053 )
( 15.305444703135256 3.9650947645924655 0.1716522634804918 )
( 16.657504391121414 1.6188447139685644 0.1278341534636414 )
( 16.575316448562685 1.7032766647301942 0.133088042468697 )
( 16.47072572076556 1.8625575422400655 0.1298779197174706 )
( 16.36104824638171 2.015032397351881 0.1257435661885712 )
( 16.258122495591095 2.1356074542179067 0.1246744336222177 )
( 16.15637953685817 2.259330462703909 0.1238608467106415 )
( 16.04928490450096 2.3887268525705125 0.1243775502848175 )
( 15.93593851858332 2.5210020277257543 0.1267003221884289 )
( 15.818675955634813 2.6564337458953955 0.1299975705361536 )
( 15.698332060148967 2.807550014426843 0.1342096941579074 )
( 15.580645536586395 2.9680228230461774 0.1390216362978297 )
( 15.46177518483713 3.1276483045363603 0.1442804552254638 )
( 15.346593430061406 3.282789528230801 0.1495760911687613 )
( 15.236984047400968 3.4230387174006958 0.153449238459995 )
( 15.129826870910984 3.539104472029139 0.1554829189580995 )
( 15.031585419792512 3.6416758808014222 0.1568039141899135 )
( 14.935903665480078 3.741181103169236 0.1578215718845504 )
( 14.840533158453232 3.843569036123336 0.1581149653501216 )
( 14.74497340818953 3.962636038049704 0.1582337131371876 )
( 16.556111531315864 1.59203749793882 0.1472190423032643 )
( 16.45803749863334 1.683392064038712 0.1491370972812353 )
( 16.331150541800593 1.8455301198124336 0.142419692855237 )
( 16.20037233407173 1.992283670051863 0.1364135518526494 )
( 16.076641237871367 2.1095121026842847 0.1342531508965155 )
( 15.947953223368629 2.229519845701762 0.1328379017196567 )
( 15.814734179278997 2.3565969002353078 0.1325043056131787 )
( 15.674971886345768 2.487735966312694 0.1331997254727912 )
( 15.526832089703776 2.621724937651945 0.1343610735822272 )
( 15.381272081060205 2.773576912929521 0.1367685476886881 )
( 15.234041402073206 2.9344045196984125 0.139473044371964 )
( 15.082344213070224 3.0958402518171355 0.1418122302798987 )
( 14.940662378458777 3.248212947043973 0.1438069892554794 )
( 14.806703462285148 3.3843828137960967 0.1444707908376937 )
( 14.67441835184645 3.504348962386047 0.1438601991538386 )
( 14.551948435063345 3.604815828754935 0.1428324083384741 )
( 14.434421923017108 3.703035315860866 0.1415346807781123 )
( 14.31453348277978 3.811147153489151 0.1398004062365725 )
( 14.194897491434276 3.934924288851202 0.1379947825936105 )
( 16.458762816014193 1.561934498373298 0.160130394026585 )
( 16.342951466540573 1.654728926107705 0.1580688038152785 )
( 16.194292385851202 1.814298106787705 0.1492321449917504 )
( 16.041309001126344 1.9550262992520488 0.1420631731147728 )
( 15.893486964539186 2.068752605366858 0.1387180382194176 )
( 15.739677354249093 2.1864180277080014 0.136527491530981 )
( 15.578227690294876 2.3125426092118007 0.1340661200622529 )
( 15.41360631245953 2.4388256983277268 0.1324993446232045 )
( 15.238278683513762 2.5693601537101256 0.1317458594747374 )
( 15.065413438508388 2.723568365527452 0.1315489559841145 )
( 14.887838073006366 2.885179891051992 0.1319214462576125 )
( 14.71082200593358 3.0485857002875023 0.1321241159963949 )
( 14.544489065195 3.201274419656276 0.1312371393450423 )
( 14.382664387227315 3.330770929965408 0.1289754871998049 )
( 14.233150304763472 3.444249826676516 0.1266126585469722 )
( 14.088739841592895 3.5451878933924754 0.1241521528335866 )
( 13.947468791759926 3.647826283857254 0.1214203030903359 )
( 13.80565090356564 3.76289721242986 0.1188354022571618 )
( 13.664795247826358 3.8929632073195455 0.1165819380721136 )
( 16.363065467481515 1.5234328441780411 0.1669726792756938 )
( 16.22729127733581 1.6124006199100662 0.1616885535515647 )
( 16.056198347552755 1.7680528290542064 0.1516478113820093 )
( 15.882997845310518 1.903019182846729 0.1439068409207349 )
( 15.709289721409142 2.016274530767584 0.1392843107834518 )
( 15.534902501540175 2.1302053806285315 0.1352418052126682 )
( 15.351923124959962 2.2495540285897846 0.1310084923272649 )
( 15.163796114809326 2.3772646263923 0.1275959362317001 )
( 14.966103110963552 2.5100833605041832 0.1250543183406831 )
( 14.758252598022628 2.660019900736698 0.1219081629240838 )
( 14.553754686166842 2.8223498265788955 0.1195663228444934 )
( 14.358221890192596 2.984316286930849 0.1180764483504395 )
( 14.164212858451512 3.136439884206521 0.1148413975908124 )
( 13.978562581139116 3.2648059003721603 0.1110050764161381 )
( 13.812549710340551 3.3735619121631992 0.1080602943611609 )
( 13.647085160548135 3.4770537131919537 0.1049119929850626 )
( 13.482437158305531 3.5820346590310272 0.1017975973141961 )
( 13.31841975341002 3.700239528891205 0.1000416570766545 )
( 13.153132764688928 3.836396933348959 0.0993795020928822 )
( 16.263211302112776 1.4833912788995054 0.1693057423761952 )
( 16.106896909160216 1.5737750146687195 0.1613466435620054 )
( 15.91523036968829 1.7227420847546249 0.1506835382107078 )
( 15.724357401396553 1.846087472730995 0.1430448167402619 )
( 15.531830711197504 1.9577836729192524 0.1362410818056912 )
( 15.33683621141781 2.064027065499612 0.1299492778632144 )
( 15.130495040668045 2.172731223111056 0.1239745802839837 )
( 14.914101555343514 2.297236634037148 0.1184721642907829 )
( 14.696522494311171 2.429073241743597 0.1140320130338214 )
( 14.468254247630238 2.578048521749101 0.1092553120670955 )
( 14.24133865461326 2.7457428115891864 0.1049453392410185 )
( 14.023489746607412 2.911032343611968 0.1014582932618785 )
( 13.808879863127922 3.0583343994028884 0.0975893472604909 )
( 13.606994880102524 3.18653837354242 0.0941577138880287 )
( 13.417890040571216 3.295387305623289 0.0912806578170364 )
( 13.22874071509366 3.397017586728796 0.0887990540548625 )
( 13.038253035017378 3.5016489427815154 0.0871219782319649 )
( 12.850371515743513 3.621440531389657 0.0865555426947212 )
( 12.663115658442347 3.7647937221597454 0.086629495486064 )
( 16.164918457171044 1.443959008603309 0.1680894233720647 )
( 15.99303901860394 1.5345520446084024 0.1589873935451052 )
( 15.777390199270874 1.6739532849371386 0.1482971712244523 )
( 15.571831236110626 1.7851979588348317 0.1390872276452166 )
( 15.362768178116877 1.888830512033544 0.1298547878771219 )
( 15.144584627549666 1.9889273683516295 0.1214668916096939 )
( 14.91782379355363 2.0888783339886605 0.1131955239282432 )
( 14.683204712810216 2.203908997864382 0.1059852122930867 )
( 14.444154083768568 2.338143004689028 0.1005080050376859 )
( 14.20046459481011 2.4895499518360302 0.0949658750086606 )
( 13.953259087313867 2.6563425562292777 0.0899781231800239 )
( 13.707254790492811 2.8267120903144702 0.0859966704921618 )
( 13.478328100601772 2.9714650061130428 0.0826314748106709 )
( 13.260332948746171 3.0985767559714685 0.080332294472478 )
( 13.043389918272306 3.2082674394986004 0.0783076874866391 )
( 12.827539667366835 3.307087868916001 0.0767019899213613 )
( 12.61364894754704 3.412676989788721 0.0758398085332404 )
( 12.40659626102138 3.536560938536415 0.0752442931738383 )
( 12.197095813010298 3.6880918585688183 0.0750985374546645 )
( 16.065974486804972 1.3989164396145153 0.164848246893359 )
( 15.877249299177924 1.4873244740316451 0.1549892824445871 )
( 15.641619822627796 1.6192468704711542 0.1432500296409027 )
( 15.423237892050183 1.718105095708464 0.1323303824757807 )
( 15.197134887467223 1.8092538339909223 0.1214126619621721 )
( 14.959507874490308 1.904496359998996 0.1104163748410572 )
( 14.72017103337341 2.006413444658554 0.1010760874417168 )
( 14.469010228511047 2.119800578062888 0.0930448492293716 )
( 14.211640016474156 2.253548383047705 0.0864750895631255 )
( 13.94898736497881 2.40234486825087 0.0804089338050758 )
( 13.68215836805078 2.564178807856526 0.0757385950710511 )
( 13.415616564993307 2.7287048145676347 0.072800414428417 )
( 13.16341562415002 2.875612303983645 0.0701421836680297 )
( 12.921327348638036 3.007789285886846 0.0688632989028386 )
( 12.679284647181612 3.1160428091166814 0.0675728534662034 )
( 12.444155003099358 3.210556592771443 0.0662553032488228 )
( 12.214947041579226 3.317181793736691 0.0655739682741077 )
( 11.987707720450228 3.4508245954325494 0.0655443714461763 )
( 11.75417055475381 3.612868188319748 0.0672539393422 )
( 15.965988145668348 1.3453435030702827 0.1599297462379154 )
( 15.761528163009132 1.4305576709844172 0.1494801476628152 )
( 15.515288931314393 1.5566550511495816 0.1364150744046635 )
( 15.281345148282062 1.649573197171471 0.1234820966341131 )
( 15.041946255068344 1.736580260421816 0.1112603506097557 )
( 14.791169075875503 1.8271731597953624 0.0991932057560233 )
( 14.536841100602777 1.9262277450891845 0.0888236502949003 )
( 14.267475706462928 2.034399256762821 0.0800143590526268 )
( 13.991516592908894 2.1610431682083475 0.0725721094378343 )
( 13.713377802899965 2.311403410184409 0.0671377440408497 )
( 13.425210496453758 2.477313810317136 0.0633638020295072 )
( 13.140476129943412 2.636470418834307 0.061363643778987 )
( 12.862555829580202 2.780946777762003 0.0599348414711976 )
( 12.590946347022058 2.910390218945147 0.0592452115573922 )
( 12.334435711114034 3.011370800857556 0.057985015438358 )
( 12.08887519491689 3.106824831451347 0.0573212805652052 )
( 11.840500155889634 3.219229351549404 0.0581763626112401 )
( 11.586821962224867 3.3593111339300603 0.060243125715803 )
( 11.32094448786076 3.536343694393466 0.0652992759861074 )
( 15.868964521464212 1.2857669265616354 0.1535865037082229 )
( 15.656416167107029 1.3679921361369003 0.1427055122225206 )
( 15.397212377003376 1.4879181961781154 0.1287680613930793 )
( 15.149456561070306 1.5765752204211414 0.1141054110519404 )
( 14.896144449101945 1.6596869034037305 0.1002771025366589 )
( 14.636632900970252 1.7426645386502202 0.0879233973313974 )
( 14.368906046804891 1.8359845295236787 0.0766869789658384 )
( 14.090784394523546 1.9419764190411828 0.0672158713427811 )
( 13.796963484488106 2.0635157272054183 0.059957707809913 )
( 13.496608439045664 2.2123231383804005 0.0553544377005205 )
( 13.18733269739473 2.3794720010984665 0.0523874263243773 )
( 12.877159553130742 2.541939020201437 0.0512763358174151 )
( 12.577492690430258 2.6869022466713948 0.0515115399942509 )
( 12.290957731355611 2.8056474802855527 0.051195990551042 )
( 12.01973722776891 2.9009819140878954 0.0506909592326873 )
( 11.751926184708868 3.002916539401073 0.0517218324769589 )
( 11.478310588783325 3.127408224165076 0.0544573675092597 )
( 11.192435606596066 3.269415091198137 0.0590658847020004 )
( 10.88429508977984 3.4524455834431844 0.066139243934493 )
( 15.777612009412795 1.227129734601627 0.14677697290399 )
( 15.553861504039096 1.3064474961030468 0.1351180093976596 )
( 15.274048922510254 1.4201779985242142 0.1190614712382172 )
( 15.016893372887688 1.4976667818544 0.1034708151706621 )
( 14.756539106012406 1.573694009974806 0.0885275323382758 )
( 14.490789905108388 1.6527940768243603 0.0748826259812226 )
( 14.210985980196094 1.7402178983113157 0.0635121816943283 )
( 13.917890600905611 1.845373952385956 0.054369737364078 )
( 13.612606808091286 1.9643743226711887 0.0481259303190094 )
( 13.29367142733734 2.1068365720144637 0.0443666280295963 )
( 12.959762619262197 2.2732958647576726 0.0425333491671289 )
( 12.624066315483654 2.4345314223600774 0.0430705105128239 )
( 12.302293732086332 2.579835424540265 0.0446417475076149 )
( 12.006159389691954 2.6940441340633337 0.0450599765779623 )
( 11.72100591136803 2.788051752416043 0.0463013003040306 )
( 11.428599316265696 2.8934999075937373 0.0490604401541176 )
( 11.121539702005713 3.022920197474707 0.0534683881056575 )
( 10.795122182096357 3.177097461273888 0.0599424644630812 )
( 10.454365268289456 3.3798351764220107 0.0673515010751417 )
( 15.690886039267486 1.1701459421446527 0.139372151534867 )
( 15.457005276764844 1.2447293287806624 0.1263059255668383 )
( 15.163911279126255 1.3504132659175114 0.1085067401661638 )
( 14.897500153019102 1.415320182163576 0.0921058271058599 )
( 14.631534205656472 1.4809022769308005 0.0766314130984535 )
( 14.357453625652203 1.5629668199205238 0.0625224112557549 )
( 14.06745288960642 1.643428949000081 0.0512889438755107 )
( 13.756795949606971 1.7384078173936846 0.043078151260014 )
( 13.434341123468563 1.8600776831512853 0.0378563708966488 )
( 13.09826829554359 1.998080459689052 0.0346810611365355 )
( 12.736751715518146 2.1658940383582883 0.0346883787343877 )
( 12.37512676421416 2.3289511683241604 0.0373941524646114 )
( 12.044103923800094 2.464901273561697 0.0395092683010646 )
( 11.74037610233234 2.57505922194424 0.0413480659068014 )
( 11.437132508452072 2.672860091829418 0.0442799009158547 )
( 11.117334734992752 2.7814467635367195 0.0483192661145767 )
( 10.772021724412651 2.9131501095363466 0.0553745078807258 )
( 10.404872048028604 3.083823949026073 0.061637512622175 )
( 10.052771268829863 3.3269219005634314 0.0659753125677471 )
( 15.609935412964736 1.1134496284346016 0.1315278639258565 )
( 15.36365197723643 1.1792038831462233 0.1161660468119535 )
( 15.062788808324942 1.2786808305788286 0.0980046108711979 )
( 14.794830429176278 1.3371995656335678 0.0814833979921714 )
( 14.520897204757688 1.3956943207776893 0.0659321260239261 )
( 14.231907839772813 1.4716456924844827 0.0518903975911169 )
( 13.930190552432428 1.5430640911742108 0.0404927351533663 )
( 13.61398775530984 1.6346512907460038 0.0332219855490117 )
( 13.273429477254112 1.756662766812524 0.0292438512641453 )
( 12.913880102816597 1.8863182511376224 0.0268080723184276 )
( 12.541280365468085 2.0475760920924726 0.0285594547169479 )
( 12.160346218887751 2.221339353677935 0.0331874148127435 )
( 11.815821433819554 2.353245833284706 0.0364428706322837 )
( 11.494524159968218 2.4543669574532303 0.0395980726416286 )
( 11.162179613000974 2.555185360732012 0.0432997581888873 )
( 10.80460858613024 2.6625649715395454 0.0482059764829755 )
( 10.424483729345006 2.803220642105513 0.0547834781907027 )
( 10.040576340286998 2.997875138445439 0.0584407558565651 )
( 9.695632579798188 3.2900637733396234 0.0611546514708264 )
( 15.530779428089032 1.0554263668393462 0.1230507682793503 )
( 15.276738235610289 1.1126810413585433 0.1063045315876835 )
( 14.968935708812054 1.2025342260139156 0.0873454161186737 )
( 14.700820311111194 1.2549318261006224 0.0709427208905126 )
( 14.421134462388546 1.3128545850957658 0.0557336619957354 )
( 14.119126911690447 1.381788267252553 0.0416000202006187 )
( 13.80922461012193 1.4411782241279467 0.0302378544219954 )
( 13.481417570263224 1.5327420396210978 0.0240308421415856 )
( 13.122151667002258 1.6546347832524329 0.0217939417429603 )
( 12.745003982754518 1.7840914642999115 0.0219521892264878 )
( 12.353598295626565 1.9336592117588167 0.0249743979446106 )
( 11.959085874998078 2.091847673946013 0.0299540411620727 )
( 11.599863759557644 2.224923225781529 0.0344806090457654 )
( 11.2513536927254 2.330415402148402 0.0385397579109071 )
( 10.888646892472169 2.423097057694045 0.0426806210243768 )
( 10.501475545269802 2.531563678894066 0.0471895876982986 )
( 10.094636639861283 2.684218657992742 0.0512238480050971 )
( 9.711393652356598 2.918917117972242 0.052746055653072 )
( 9.352070973393454 3.27540911021362 0.0554058544801194 )
( 15.457970638984778 0.99534005796197 0.1140742699033503 )
( 15.198963926281872 1.044059793649427 0.0964851752788097 )
( 14.881814344978936 1.120318353025196 0.0763349665857191 )
( 14.61313772866728 1.1701563236183703 0.0606370561766935 )
( 14.327472783974036 1.2229771923643489 0.045646858331335 )
( 14.012821097504336 1.2871385177514174 0.0318455942071961 )
( 13.702778933342104 1.3468606362438167 0.0217508597383621 )
( 13.362322106623555 1.4273900406954425 0.016467816922047 )
( 12.981960785060798 1.5443913901081905 0.0153924067582572 )
( 12.584532198701838 1.6773497355439748 0.0178430417827247 )
( 12.167566532368266 1.823943717618604 0.0222714287062468 )
( 11.768048444861527 1.9673304830061145 0.0271166250406365 )
( 11.388949575122831 2.0897463205190734 0.0319806000073893 )
( 11.009478839723284 2.195818198616976 0.0375655566086505 )
( 10.626571106183963 2.290784738028506 0.0428964419554118 )
( 10.218074202978402 2.409089182451078 0.0466351686057576 )
( 9.793311931937346 2.580449500196584 0.0485578146147952 )
( 9.400087986504222 2.8519003639236327 0.0491756210413097 )
( 8.943636590081894 3.229285753926168 0.0487710834762495 )
( 15.39505051647031 0.934962997299255 0.1055007585652894 )
( 15.125933578236708 0.970859218125348 0.0862194244297345 )
( 14.802132985444011 1.0366208753424302 0.06575950214335 )
( 14.530061699400768 1.0833468847441112 0.0505262287130276 )
( 14.239004013728287 1.1329046173732846 0.0359305710716946 )
( 13.91572112323172 1.1964549481624118 0.0233475192458901 )
( 13.594734486548314 1.2531847999391268 0.0149971337490523 )
( 13.249161004460584 1.3237990083337066 0.0106449563081782 )
( 12.859236528985765 1.4307535015758437 0.01068586061667 )
( 12.44058745000378 1.5549947647028752 0.0141256841565215 )
( 12.003330132889754 1.70422333581559 0.0188368157082193 )
( 11.589795129518166 1.8489034152527284 0.0244697175532473 )
( 11.186479881114169 1.9603087292799608 0.030138575583169 )
( 10.785099976475468 2.0565308550341155 0.0357741435020167 )
( 10.372283713187024 2.164584991305111 0.0425274959978404 )
( 9.94407581927824 2.2919759971365328 0.0467603198539646 )
( 9.513670153963025 2.4830910080972566 0.0460425399920738 )
( 9.054848363895164 2.7847101641666536 0.0463673716238752 )
( 8.43138931429013 3.118430847835356 0.0430418108022393 )
( 15.334821291188064 0.8700166948435034 0.09600551703148 )
( 15.063495919410762 0.901065533370138 0.076464165955968 )
( 14.738737656443991 0.9568458877593692 0.056356311710184 )
( 14.457096618562462 0.9913344318420592 0.0406050750041129 )
( 14.159446730611716 1.0401908503364452 0.0267633228183531 )
( 13.831883775124757 1.1059397787176053 0.0160268512686357 )
( 13.498408204704722 1.1546805317143116 0.0089631972684206 )
( 13.147876230076545 1.217742552870827 0.005745649640608 )
( 12.740278467592397 1.3198973605090585 0.0074373228026506 )
( 12.304787531125063 1.438804357846855 0.0117992951987067 )
( 11.85212435622701 1.5804771574800909 0.0162634193029756 )
( 11.40978238239717 1.7210864835302906 0.0226775744685786 )
( 10.993503474190264 1.836182817355031 0.0294796881358999 )
( 10.584692112148018 1.9283121084384376 0.0340080008630461 )
( 10.143695413887578 2.037808497483549 0.0393430422603147 )
( 9.686259243183224 2.1737544523854977 0.0421338137906985 )
( 9.241192340429064 2.381459125802309 0.0423644739716007 )
( 8.685407266691765 2.69365628502109 0.0418854582890014 )
( 7.816572147662583 2.93356035956039 0.0354712848995591 )
( 15.279714034012446 0.803461955519115 0.0862550394109534 )
( 15.007930103873454 0.8321967547949474 0.0674205716486649 )
( 14.6806451737145 0.8818121671469713 0.0477584163513544 )
( 14.39508901487583 0.910016702265773 0.0322195262562682 )
( 14.087211551648483 0.952348899933066 0.01910173412231 )
( 13.747475171142272 1.0035979718832786 0.0097157798342008 )
( 13.40612641497578 1.0489991901359446 0.0035679606517449 )
( 13.050956143693895 1.1081069823390506 0.0012016647846933 )
( 12.618700948633151 1.204997417867604 0.0043183020633845 )
( 12.166011958286637 1.3264990672458727 0.0097431606960978 )
( 11.71086691032739 1.4593533620122543 0.0147881323584701 )
( 11.25626616889943 1.597602131355681 0.0219072568576811 )
( 10.82360222691964 1.7176205352125975 0.0289339400331015 )
( 10.387090335738504 1.8026129585461883 0.033713057079862 )
( 9.932385832475797 1.9041680693048288 0.0375650832652048 )
( 9.456641846819712 2.0477656121392345 0.0381430755517681 )
( 8.94722147586301 2.2758092983842384 0.0375494263089592 )
( 8.319739852327002 2.589056377484613 0.0338431732819339 )
( 7.056175387218746 2.647355069544598 0.0272090010579722 )
( 15.22955625026292 0.7425519064130947 0.0779508044131816 )
( 14.95217741795209 0.7630396471146025 0.0588917074702371 )
( 14.623221692592477 0.8060571390578953 0.0394350636339625 )
( 14.337996315569034 0.8332998700574011 0.0246351885565134 )
( 14.021355090013722 0.8665981627903804 0.0120390645792327 )
( 13.676957808003444 0.9045230956784812 0.0040211158052063 )
( 13.3278802505577 0.95216251329857 -0.0006174249334845 )
( 12.955620616127971 1.0144200554400034 -0.0021590879682126 )
( 12.505180433807256 1.0986504402947248 0.0014920777932831 )
( 12.031255883597314 1.2149631370960088 0.0079188349450925 )
( 11.570439204500977 1.3387520290099653 0.014226314848933 )
( 11.117683539366231 1.4610363442714227 0.0208502960730866 )
( 10.668586675226011 1.5737535853495153 0.0271093093197014 )
( 10.202209359895066 1.6622204854613642 0.0331014876141556 )
( 9.724332864301616 1.761463109894278 0.0385685836966775 )
( 9.229023528436052 1.910757229930211 0.0389154865494063 )
( 8.6388545176294 2.1506176445109304 0.0350588985594657 )
( 7.82055926501726 2.40265464000622 0.0302545942564398 )
( 6.320555960542048 2.323322534924183 0.0242003864617748 )
( 15.185813517334736 0.6800195805127035 0.0698725197322274 )
( 14.90357928618971 0.6957450427727809 0.0509152886598349 )
( 14.568738998649296 0.7313168882363157 0.0316238818762653 )
( 14.281576722829064 0.7514660301820794 0.0170172619202883 )
( 13.960902127700416 0.7825434583981506 0.006240095103625 )
( 13.618200306531229 0.8226749230579917 -0.0007433097159194 )
( 13.266773629366876 0.8681462698094362 -0.0048390996105544 )
( 12.873214472552336 0.9226640369115908 -0.0050666166869083 )
( 12.411663999042275 1.0010175502130076 -0.0006171332725764 )
( 11.930430221822366 1.1102561586295314 0.0066420244383373 )
( 11.45266789732326 1.2251716920927458 0.0135063537391838 )
( 10.976746262567564 1.3284675505882584 0.0198236109608885 )
( 10.507932956994782 1.4240102123955756 0.0253448891783644 )
( 10.024858570852574 1.511584869504314 0.0302086368049227 )
( 9.52916855449765 1.6171552414877024 0.0352562840809417 )
( 8.994729758622261 1.7868788181437438 0.0352695952374628 )
( 8.342649474057305 2.018440144735248 0.0327272900094461 )
( 7.282742094927276 2.151692556746335 0.0291030809414483 )
( 5.688675777238813 2.013457757910141 0.0202884456662458 )
( 15.147922424226552 0.615711808554685 0.061867065642044 )
( 14.866645134100873 0.6291597331335652 0.0439513787038071 )
( 14.523732025434173 0.6595643752054796 0.0245419425002954 )
( 14.22989551953136 0.6716164976127527 0.0105142232260688 )
( 13.903721957048486 0.6962337315809262 0.0010231630064092 )
( 13.557866268596378 0.735113828422344 -0.0055750981539276 )
( 13.20244266033147 0.7677476050940962 -0.0092809993521637 )
( 12.798329623823465 0.817306896021559 -0.0079630934328007 )
( 12.33664320458893 0.9041526200371288 -0.0019010528982736 )
( 11.849164863997377 1.0060145800619926 0.0054183172990247 )
( 11.348896626927544 1.1153825253424632 0.0116355427163516 )
( 10.84959484303874 1.2021314138665764 0.0183940648077587 )
( 10.36159330402924 1.2815207234353518 0.0235229472238835 )
( 9.85138234050548 1.3626088074305942 0.0273166308477018 )
( 9.339255975510143 1.4692335263914948 0.0298216297714951 )
( 8.746214995057867 1.648796938753078 0.028653436132998 )
( 8.017983199639259 1.855113530384176 0.0272477824672539 )
( 6.83218844299898 1.9018654395905752 0.0251397387143023 )
( 5.106485289487268 1.701083038954911 0.0173543456873836 )
( 15.11553589818461 0.5594296235876414 0.0549470832672265 )
( 14.833032707358614 0.565590861117659 0.0374617691363269 )
( 14.484743123344163 0.5869253938351573 0.0180817336398262 )
( 14.185386125172638 0.5952373568969967 0.0048302118746978 )
( 13.85483706337661 0.6109623314185989 -0.0040205413196861 )
( 13.507777572393405 0.6397260441844493 -0.009845690027392 )
( 13.140105639324096 0.6644039448794228 -0.0129440985643163 )
( 12.72772437049294 0.7191511472526104 -0.0100830813669205 )
( 12.266729418835856 0.806381753325575 -0.00270035698542 )