/*--------------------------------*- C++ -*----------------------------------*\
| =========                 |                                                 |
| \\      /  F ield         | OpenFOAM: The Open Source CFD Toolbox           |
|  \\    /   O peration     | Version:  2112                                  |
|   \\  /    A nd           | Website:  www.openfoam.com                      |
|    \\/     M anipulation  |                                                 |
\*---------------------------------------------------------------------------*/
FoamFile
{
    version     2.0;
    format      ascii;
    arch        "LSB;label=32;scalar=64";
    class       volScalarField;
    location    "0.0025";
    object      k_LES;
}
// * * * * * * * * * * * * * * * * * * * * * * * * * * * * * * * * * * * * * // 
 
dimensions      [0 2 -2 0 0 0 0];
 
internalField   nonuniform List<scalar> 
13597
(
0.2584512575324601
0.25958773242861
0.2597801085774324
0.2593137299214871
0.2579798040474699
0.2561129943243328
0.2539279278248481
0.2506039752168244
0.2475082076975262
0.2444513470441757
0.2411865538442515
0.2386023605176373
0.236256253679924
0.2345516607775022
0.2339951184648807
0.2349549539463942
0.2363718357392888
0.2368484030473547
0.2386732533028508
0.2610240581888845
0.262363806564759
0.2627825631983587
0.2642426702738976
0.263789205041292
0.2619950474015622
0.2593039439945682
0.2562802020905971
0.253531352013665
0.2497639537112114
0.2454120784790266
0.2411503043840947
0.2370003182882081
0.2336123011676483
0.2316129081363923
0.2308597199234135
0.2305861142741426
0.2304570939727936
0.2315508308352477
0.2624462746726874
0.2631380046596714
0.2631782501342981
0.2633651173072485
0.2606754677119103
0.2574836098084244
0.2530772708770974
0.248617283092696
0.2448107277402465
0.2408409234007706
0.237453291757318
0.2351078435584461
0.2338003744317755
0.2336707395698832
0.2346395907058714
0.2361713557427615
0.2380088534053535
0.240188678256124
0.2423092200735704
0.2616244255366735
0.2615690980338291
0.2605715302550428
0.258399366725148
0.2544115094340747
0.2508324039585465
0.2475098045168043
0.2455801632389166
0.2447298058179826
0.2448535170794038
0.2462926432806451
0.2487506646929168
0.2513205856222905
0.2551611057809045
0.2591124650215706
0.2620442388915741
0.2648505564443276
0.2675862364000982
0.2696950201758274
0.2606453364767687
0.2590532011645856
0.2565572270908536
0.2540382267849427
0.251784169750124
0.2515309659677669
0.25306732766481
0.2566076380649352
0.2610999442582694
0.2664495112422456
0.2724923257038416
0.2785151947123981
0.2839926144525149
0.2893453408584207
0.2941400155149804
0.2978460318922837
0.3008097529252132
0.303157709091513
0.3046386675085423
0.2586887959363265
0.2558048949083679
0.2532272541248928
0.2535144804418778
0.255769755998643
0.2611449817523051
0.2685769498794624
0.277710397668006
0.287375695158778
0.296890763406803
0.3053508119099434
0.3120778171232793
0.3181426481998784
0.3231056105408819
0.3273756154487165
0.3306695095248001
0.3334779508870122
0.3354666985689575
0.3363235184284827
0.2546211643760192
0.2520086827616286
0.2529405563705255
0.2586344739567112
0.266648639000541
0.2774663113908376
0.2895420693603467
0.3023975326472414
0.3148181658011563
0.3253031798833387
0.3341266821247051
0.3409986718882641
0.346767238971573
0.3514720539346413
0.3556382299042165
0.3592267598434106
0.3620484279917197
0.3642675028192038
0.3655530752866808
0.2513253415550043
0.2501891980449031
0.2561151754564181
0.267621263960462
0.2807325014958173
0.2955575159193817
0.31044503181405
0.3254262372922604
0.3391410803073445
0.349243946611396
0.3583211538647911
0.3660714340614806
0.3714320752262555
0.3762370482692426
0.3804409062477443
0.3845926833864539
0.3882515422526215
0.3916082506466399
0.394470695050278
0.2483908508027773
0.249787077738175
0.2612134762666122
0.277575425763377
0.2948805101973534
0.3124325626037652
0.328907593379069
0.3445763944464192
0.3584590273003906
0.3700401590478451
0.3792662079293057
0.3872625403434511
0.3929273103912157
0.3985197831326182
0.4040611752147554
0.409572065553923
0.415096543994888
0.4207866032301556
0.4266531388298642
0.246046530612355
0.2512142926447073
0.2674872276682239
0.287657856140781
0.307646866261766
0.3270241894383854
0.3449953310410434
0.3616230173262431
0.3757799153436317
0.3875181950744271
0.3969538350555415
0.4051960076317381
0.4125501250413755
0.419885866505357
0.4278137636845812
0.4364241717870268
0.445477925816016
0.4548121171562087
0.4646846769902418
0.2441146018860197
0.2523556317342815
0.2735701992951111
0.2966273929901424
0.3178749128418872
0.3391145001127795
0.3587450071610619
0.3764105412659477
0.3910853355846548
0.4024234779603903
0.4126913663676516
0.4226893706140668
0.4323562987953049
0.4424465721187425
0.4537828214981274
0.4666274863025738
0.4805764963351357
0.4945510684605013
0.509553933956428
0.2420888451172346
0.2536284358871786
0.2796537852115377
0.3045902112353361
0.3271577551889898
0.3492655642320723
0.3700229920868252
0.3884017396839175
0.4031039971813341
0.4155774990181316
0.4276562767789487
0.4405298710401379
0.4535456629803887
0.4675943516408446
0.4836856387971505
0.5013284321014407
0.5202057100412073
0.5402403400371787
0.5620011663833229
0.240241462233309
0.2556607671382265
0.2851057763009479
0.3116522725704503
0.3359933186306247
0.3585954226956604
0.3794919980194464
0.3985117686800485
0.4143973591792087
0.4282736464058788
0.4430571328471807
0.459441757902473
0.4767205605613508
0.4962669478633428
0.5175194553122848
0.5400952265898001
0.565358311132779
0.5930586920354505
0.6217319064523905
0.2385276860414914
0.2571110936075791
0.2897747189560508
0.3173873562073774
0.3431606180353193
0.3668942461302704
0.3877702640414007
0.406300997475419
0.4238480328339126
0.4406977503733358
0.4587813254055633
0.4798238238970105
0.5023426224934815
0.5270892417801801
0.5542590109625509
0.5838899016329642
0.6170405488609279
0.6525101965227341
0.6891363830705669
0.2370717344185178
0.2587236156653403
0.2948407158678299
0.3229951559508157
0.3492811969713245
0.3729953142881788
0.3943255644480395
0.4137342424269384
0.433142449354152
0.4533161393917747
0.4757969858401606
0.5020714576389106
0.5309764729155025
0.5613292894538615
0.5951091805177543
0.633097971419072
0.6746771037343962
0.7191688748731666
0.7718087605656129
0.2355573993675743
0.2598400428254143
0.2980277547809899
0.3275317778095218
0.3542773895349435
0.377583454672719
0.3995178822695086
0.4210177415059457
0.4430591321804464
0.4663708622181001
0.4943865708450862
0.5273290926309541
0.5622498012105015
0.5986187964599349
0.6395632695770678
0.6858284693169845
0.7375694600424941
0.798533473174125
0.8798821587400055
0.2341336122485661
0.260704437500568
0.300748549748566
0.3310175887010089
0.357933388634274
0.3818986722037992
0.4047431986042721
0.4276861912361936
0.4524441400139788
0.4802870115257744
0.5128107851656465
0.5520312914523482
0.5937556412757713
0.6374290967981743
0.6867495290941961
0.7430358291821297
0.8092437418093053
0.8969016422701349
1.0095329381239424
0.2343728113876506
0.2625596953620728
0.3032498395407454
0.3333665555643878
0.3604155320000747
0.3853823589641643
0.4093134087461921
0.4341020193190054
0.4623871036488702
0.4947736064236219
0.5328276820663965
0.5782586346992623
0.62678303258552
0.6788391495671926
0.7377726148574875
0.8059128353039875
0.8951477584022536
1.015507300272027
1.1331043235850404
0.234972620313676
0.2636775479543805
0.304781190714641
0.3352669200230975
0.362153398868793
0.3881746648100784
0.4131153857922011
0.4401180896748562
0.4724334298975035
0.5098446438622214
0.555114854789636
0.6061184361948789
0.6619371450217267
0.7236238545971491
0.792366197461152
0.8784797612651958
0.9990307258109986
1.1505319909876297
1.2409982133682378
0.2347994709506835
0.2638659165306021
0.305745157123222
0.3364295411103051
0.3635585973490919
0.3908532461778554
0.4173978737179309
0.4465690280237888
0.4823086930377581
0.525220488626445
0.5773362073387535
0.6351571507106533
0.6988904062329877
0.7688107001532195
0.85348494685813
0.963532000835379
1.1178990637967456
1.2894044459799996
1.3266391107081985
0.2348265824320798
0.2638901740461787
0.3051541495846619
0.335672805808584
0.3639999492071828
0.3928490804966902
0.421203909599786
0.4523963950806315
0.4922317293260803
0.5405294046238273
0.5994810874731606
0.6665185600670608
0.7367584126387733
0.813536972511254
0.9174854534671032
1.0613060545728903
1.2496531326744675
1.419906094102496
1.3440063753149
0.234952810301989
0.2637739599202574
0.3047406344068767
0.3351307155647142
0.3644400018183388
0.3951480011716987
0.4254848142816796
0.4585576796445629
0.5031277186550566
0.5568788940118354
0.6213609581290478
0.6941559392208578
0.7712006256463877
0.8628374322469932
0.9862989537815352
1.1667921705637738
1.3847202664579912
1.5309817030852837
1.2658138762892213
0.2349460419636746
0.263911129515612
0.3046992954545426
0.334664652572141
0.3643633114316121
0.3966755690282442
0.42963632427004
0.4657895650228526
0.5148468058895951
0.574958514162932
0.6443348583051952
0.7211785122989958
0.8059777117749792
0.9139395912330932
1.0667838470730455
1.2820180419616578
1.5171099863675217
1.5755268583937498
1.1696371483985206
0.2343151202102077
0.2630645527066963
0.3042833475155075
0.333806646553112
0.3642560387088471
0.397737790700344
0.4321577324685222
0.4718700474370157
0.5248127170112743
0.5898080611615806
0.6649476736661525
0.7507916370897629
0.8463692455415252
0.9698356820431108
1.1535309100580176
1.4015371299095227
1.639309847965818
1.565312658710261
1.0756511769903971
0.2334745634726671
0.2616480933070026
0.3026495235226423
0.3325044858062131
0.3640559007095211
0.3983183005254916
0.434241667127096
0.477387226169876
0.5334740007965705
0.6025486426722515
0.684647541760528
0.7794616577738008
0.8862544354057961
1.0343286650885093
1.244111099879753
1.5157763181866706
1.732014255238717
1.540390660849868
0.9668826839755176
0.2329989086567645
0.2607578479585646
0.3008019412848638
0.3310489577486187
0.3637148529457313
0.3988853720235741
0.4370507022470284
0.483177806285747
0.5425522067976517
0.617504739543792
0.7049850219157829
0.8059296322475527
0.9250382301732228
1.0959757793571707
1.3325907455410264
1.6243201435732533
1.7662058915233458
1.47113952102544
0.8837090813268272
0.2320581785704602
0.2593980772285111
0.2993978272514119
0.3303428645043175
0.3633051594425696
0.3996883299181151
0.4407457256746563
0.4899398621165887
0.5526209398599192
0.6324734776338369
0.7244363836481242
0.8304596972273035
0.962586977181331
1.151190639930351
1.4181003773139296
1.7192374050983903
1.7793747641498618
1.3901697113990463
0.8132068009484873
0.2310732928834977
0.257490589610213
0.2976635490602316
0.3300289776246496
0.3628099646206432
0.4003058676001588
0.4440068225005054
0.4954176102791461
0.5614191256863319
0.6469551577101805
0.7447573420730073
0.8540863344244778
0.9974960975353436
1.206992249543302
1.5107567692833417
1.810499996494472
1.8124121689805015
1.336418563332045
0.75227556444673
0.2301760416023116
0.2557021096696162
0.2952316388372623
0.3289359108622334
0.3623868202379859
0.4006753042805619
0.445886302890323
0.4993970465008295
0.5690602988101333
0.6593021129934972
0.761780848361692
0.8794805311591755
1.042314729351539
1.2677535920860017
1.5938628529188168
1.8802081074586376
1.8180095523622013
1.2868240341824415
0.7132469020120501
0.2288064983548302
0.253622440185155
0.2931305121608882
0.3281237289389318
0.3625068928626078
0.4015393748583806
0.4477073769270607
0.5040363056218312
0.5774686276836345
0.6687991658433826
0.7742831785473722
0.9048721353034046
1.0824487566643377
1.3262500477373191
1.664795424025059
1.880438320912842
1.7529056328939223
1.2356439675401274
0.6893641140720362
0.2266704941843437
0.2510988989413923
0.2915457724025594
0.3275883861052496
0.3629467353699382
0.4033399570130889
0.4504077520537456
0.509449595995147
0.5860913622323016
0.6789801686127833
0.7882725474810963
0.9290073161960528
1.111822014396633
1.3780010026465177
1.728560753281199
1.8700652987209692
1.6836880329191763
1.1896183160006142
0.6721065141674398
0.224332725840491
0.2488501861068662
0.2899761869363468
0.3265961357017098
0.3631557007279611
0.4046209305407792
0.4532576368146147
0.51510405387391
0.5939167756391885
0.6892952596815587
0.8025777019739748
0.9504749338449796
1.142462848987592
1.438367706430818
1.7877118183538574
1.892664114185512
1.666342384124339
1.1508939177503617
0.651400140388382
0.2224151806943381
0.246894856139729
0.2887128344752789
0.3258912973759213
0.3629120018187433
0.4040863498474008
0.4542342197196564
0.5193490631338672
0.6004922423878433
0.6992513112280483
0.8166256973803191
0.9701431658453284
1.169522464946619
1.4886012749241864
1.8438650657604927
1.9258918728553096
1.6675965974227602
1.1231770979374138
0.6284607537187684
0.2210506432933295
0.2454988625747672
0.2873935136589117
0.3246326247248008
0.3622762572966628
0.4036632644752218
0.4540885997202781
0.5216748273433078
0.605668204437642
0.7093670459957235
0.8323640438807344
0.9892824178173404
1.193633432288975
1.5247649747739924
1.8926137498753992
1.9600608209439656
1.6722488709682546
1.1061797793585673
0.614029155107219
0.2201098738577213
0.2447134337110573
0.2860384388726397
0.3228734573814917
0.3615758752770259
0.4041370905386239
0.454720224518144
0.523171389156251
0.6099547837761086
0.7173091491469913
0.8445534452839084
1.0054284616829223
1.2189096170517857
1.561472540182423
1.9285097959706925
1.9780620344657835
1.670073944342523
1.0925786769565438
0.6044220161455292
0.2188855951141781
0.2435274901820641
0.2848752168256153
0.321634103586055
0.3610956475771731
0.404458805525634
0.4552941118797954
0.5247170008006676
0.6143637674583602
0.7229285150244408
0.8532793999190116
1.019481914135127
1.2419479353781473
1.5888883733012669
1.955968467687028
1.993898880159075
1.6622012695836428
1.0762161787815192
0.5934968314186726
0.2171096181046155
0.2419258340021195
0.2835544902626108
0.3204364902138445
0.3609502183721946
0.4055025740244405
0.4571775440100199
0.5270988882934994
0.6185676973829151
0.7283830834900229
0.8615265859372117
1.033164894661512
1.262546425443731
1.6137572361143069
1.979121250185806
2.0022305474329394
1.6608990913653034
1.0707571111467948
0.5842780555113762
0.2157192812803956
0.240759378315621
0.2819556068726069
0.3193231509621974
0.3604519126138291
0.4054008754009737
0.4591062404939089
0.5297638533495271
0.6229517622600433
0.7332740128968798
0.8688493852046306
1.0456631376052488
1.2863838318487382
1.6408158381616853
1.9896671019127656
2.003024305928072
1.654131418380774
1.066911937852533
0.5788427983569374
0.2147787177503784
0.2395598832860141
0.2804331977506278
0.3184592303575191
0.3599578488458066
0.4044248046989686
0.45897717080161
0.530633320647891
0.6263596533750718
0.7372014233722023
0.8743401192102096
1.0552556264967137
1.309583399285128
1.6708362725919552
1.9941621769836997
1.995857680484349
1.6380842923823309
1.0552525946519105
0.5762224079994989
0.2135105233708411
0.2380490991177485
0.2792530124692444
0.3175811792888739
0.3596323504683985
0.404378303485528
0.4584644144713786
0.530193362894794
0.6273024819060403
0.7388721636518698
0.8772980714321571
1.06153168886034
1.322833028096278
1.6937640179990237
2.000618990957331
1.9824497671913
1.6272084884244922
1.0486325443308389
0.5753339029847996
0.2121074829553791
0.2365723609932288
0.2783684819091073
0.3168783985204949
0.3591026971513995
0.40453393834736
0.4585925579686677
0.5306147051593842
0.6290627577292937
0.7425180526761762
0.8810082561646422
1.068859192014706
1.3340748595990672
1.7057537237732134
1.9994826122268736
1.9649177686683723
1.6129305430773422
1.0407643678073688
0.5749510057995665
0.2109470114354748
0.2356971436708212
0.2778458676043115
0.316458837964172
0.358202811902262
0.404458271446023
0.4594437644131052
0.5318165533395851
0.6315814443206201
0.748689885028513
0.8870738158453765
1.076325628978474
1.3436501145603357
1.7101709613640736
1.997340091689438
1.9557045639416772
1.5974752523216555
1.0282500306465856
0.5721948887113657
0.209915707233237
0.2351650462072772
0.2770193664067784
0.3155900312600054
0.3577058353287763
0.404742822264282
0.4602937977034878
0.5319934663716145
0.6310518689798488
0.7513726536731352
0.8918313992704698
1.0798790676248988
1.3450634264005938
1.716818480859165
2.0076074339757373
1.9540085772028135
1.584773371347298
1.0172982337141925
0.5658842084537171
0.2092249284053829
0.2340300175712493
0.275377887224897
0.3138996936050433
0.357191880522204
0.4050317418340882
0.4603657924923229
0.5318606535057351
0.6317439469962793
0.7546097011511055
0.8961399762998444
1.0849908545857334
1.3490006005956665
1.7241564464197523
2.00436079386428
1.937864375347893
1.5720452136571543
1.010575008589006
0.5626305414921723
0.1756376934294735
0.1778829365393147
0.1839943756222693
0.1939449329525151
0.2034279325064828
0.2112238718844292
0.2181745926485559
0.2245246869752213
0.2300390451004783
0.2340926505942562
0.2374483256851331
0.2406212778076065
0.2438671930659797
0.2463158186054037
0.247629272637223
0.249114724385859
0.2510270368365053
0.2517663091649215
0.2513564774681926
0.1721666309107984
0.1745071504924731
0.1804684574365427
0.1902274158979881
0.1982189450345979
0.2052074953700106
0.2114953439419882
0.2169429710706587
0.2217626288280395
0.2265272459834182
0.2308314242236986
0.2353109571020802
0.2392439017496895
0.2424540366857924
0.2454367155508898
0.247768434833983
0.2501633159093137
0.2523890852343596
0.2543395446706573
0.1701887378636566
0.1726046505680113
0.1789319220730026
0.1898338377139164
0.1980512480588824
0.2054870754858871
0.2129900922208771
0.2199660552520565
0.2259508624459952
0.2318586515570941
0.2372948289352255
0.242513389211598
0.2469774603585769
0.2507794519954675
0.2545134480159669
0.2576459969881
0.2599927331111572
0.2618591258125538
0.2635678668487906
0.1700476062033033
0.1725895578708674
0.1805412945912354
0.1929923873809781
0.2023455661313306
0.2111838103408464
0.2194177838169622
0.2269974420895151
0.2333788195769508
0.238961148353472
0.2439299815599609
0.2484699678261119
0.2528055492093362
0.25677297874841
0.2599382077115175
0.2625536921571804
0.2647757118211014
0.2671274568066036
0.2699286658217904
0.1713881657516864
0.1753076804739931
0.185196832396219
0.19931651107244
0.2105683698751933
0.2204369644398496
0.229124900879531
0.2363707408997216
0.241886865812118
0.2465551768218769
0.2508309898267951
0.2548237365446967
0.2591935935435165
0.2638776188563175
0.2678352085313303
0.271537841423114
0.2754096332840046
0.2795053398616045
0.2841208928814802
0.1739868352382877
0.1812638106362761
0.1942869473348883
0.2096965417069826
0.2217814719280049
0.2312322256407797
0.2389654866337907
0.2451352561457239
0.2498374059924289
0.2539207379734559
0.2578898467637282
0.2625597633839438
0.2682353638301253
0.274140592662769
0.2799336513357885
0.2857744179632799
0.2913121082574403
0.2973136913511526
0.3042413640694918
0.180957300780763
0.1907654908142905
0.2060213581073138
0.2218595721684881
0.232818085622544
0.2404950306834213
0.2467868501827418
0.2517951173551973
0.2560281697496667
0.2602224177434603
0.2654291105692232
0.2725949175406145
0.2807368603223096
0.2887839964122858
0.2969083882239913
0.3051485011208451
0.313067396224085
0.3215508386888121
0.3307424111475617
0.1910331620871626
0.2023746943353928
0.2186067563146506
0.2327319724544972
0.2412869584023345
0.2472449323041685
0.2528324315975865
0.2575165633153038
0.2620246952806677
0.2678484736713864
0.2760868544138438
0.2866426801389971
0.2975478147729655
0.3083894355675746
0.319078390382554
0.3298492273266375
0.3406497244546656
0.3520624471254999
0.364052441381626
0.203377227681425
0.2151671081431168
0.2297021353454632
0.240889871728353
0.2471455192441487
0.252309459055449
0.2577812266582445
0.2634041331440767
0.2701484606761611
0.2789270719452248
0.2905137677314491
0.3043064705840431
0.3181961749491664
0.3318866625682588
0.34542513795743
0.359034186983362
0.3731045709650099
0.387783754736316
0.4028702075093469
0.2149868399893815
0.2256725388284106
0.2378495639492873
0.2461236186066904
0.2506171956910459
0.2560741803853593
0.2626059961890963
0.2701506324621999
0.2798523337743033
0.2926689258761175
0.3077968187086996
0.3243608776213018
0.3415098763366588
0.3584936845792483
0.3753939088745512
0.3923375200524371
0.4103979323359795
0.4287118495573739
0.4468453956287455
0.2247124479050103
0.233411195316466
0.2424870062792737
0.2491003025207653
0.2540626206129386
0.2602725254139883
0.2676128694070961
0.2777558493941495
0.2911363104349208
0.3075347783392135
0.3261632447481927
0.3467871464750042
0.3675878023500121
0.3881585319410636
0.4090255691099295
0.4297936100924985
0.4515291870155263
0.4739062637098695
0.4964290809185499
0.2329744593241505
0.2385835064313002
0.2444647040959319
0.2504958209585982
0.2563708033321014
0.2637022287767354
0.2733897864274118
0.28736913588882
0.3046327073646331
0.3243684789732179
0.3474075511567046
0.371983404332014
0.3957611295194675
0.4200145899555957
0.4451570149344423
0.4706421558983732
0.4970781354285238
0.5245181843053318
0.5529606473815356
0.2382278853490878
0.2408318591398529
0.2454100304933917
0.2510902380369271
0.2580445046530215
0.267690797094715
0.2805991675616761
0.2979215204472163
0.3193132524907538
0.3431125458305499
0.3698325365021764
0.398527919420769
0.4260481441033442
0.4541705366539339
0.4841162532818058
0.5150867534579193
0.5476916017387844
0.5819299862882036
0.6177437429556866
0.2411165253434601
0.2411925726085835
0.2454390224980881
0.2517469502521664
0.260534357872407
0.2727614078344872
0.2891892163779759
0.310336107391046
0.3355993403257571
0.3629608020307583
0.3929097064066266
0.4253452349954532
0.4578884998758357
0.490452629625338
0.5261286368218618
0.5647491313939961
0.6038933245226791
0.6452215107778758
0.6902908344776414
0.2422380444562169
0.2404122505790501
0.2445007552030032
0.2521337965160651
0.2632694915187291
0.2784625711800125
0.2987157815946226
0.3232479350680123
0.3514835136665919
0.382844936792933
0.4170025202900895
0.4526367175690465
0.4904061115732668
0.5298722200943813
0.5713020021662317
0.6172958129494088
0.6650348975394832
0.7165597163482994
0.7806556436901926
0.2419399591523607
0.238989891070228
0.2436961234063976
0.2527049913850028
0.2666825275476575
0.2853920868040433
0.3088032953487714
0.3359975502749548
0.3668546654680021
0.4027526190686253
0.4407496817792507
0.4811895680012343
0.525170442336953
0.571836270489866
0.6197869291193568
0.6713373484794318
0.7304081288808874
0.8021254523149569
0.8951952534172889
0.2394498143010879
0.2364003451174743
0.2434152520819904
0.2539253969974754
0.2707810152691348
0.2923295286596348
0.3186217166536211
0.3494531955286017
0.3835113189526579
0.4224545081007241
0.4641844997319927
0.5110157766518921
0.5609705309416859
0.6135973267966753
0.6697327339544349
0.7308265500359262
0.8051635864666642
0.9054816205746108
1.0235554227330417
0.2350938158089919
0.2329408561088383
0.2433129028211357
0.2557782727534865
0.2748402707544206
0.2995109719271834
0.3289742019698341
0.3626632837153712
0.4005462494425784
0.4418341340663629
0.488341140872248
0.5418921485759282
0.5980365166657298
0.6578282910322789
0.7220068006104081
0.7974118031791813
0.8955321226017975
1.0314852058848103
1.1523885180925295
0.2304044516178078
0.230057554651857
0.2426761231175631
0.2582559921526121
0.279464379350218
0.3063183424325016
0.3386012762803045
0.3750496033476208
0.4164294909316835
0.4612277261105253
0.512811233400918
0.5720713950711548
0.6359753706632685
0.7032468568980644
0.776719210382169
0.8727134456470634
1.0032451182733146
1.1657761532130166
1.2470317960034054
0.2264558747516614
0.2282397220073857
0.2425647737741884
0.2608590201660726
0.2845359674565264
0.3133140459333866
0.3470598223218066
0.3862981000868239
0.4311824790576976
0.4804876963234849
0.5386767686272577
0.6042213911755868
0.6750841260534909
0.7509028563831575
0.8371363512666793
0.9565846798563068
1.1258654051695764
1.2912603156513125
1.302501575949553
0.2232897275101478
0.2262758547970571
0.2431801125198759
0.2638641473944865
0.289714852813723
0.3205043041745924
0.3567926079985214
0.3983888740679185
0.4449796681843878
0.4985220443422354
0.5636672922757507
0.6372834325692037
0.7144269745193182
0.801496662023717
0.9071997069246024
1.05401008777324
1.2539200896730056
1.408286788874319
1.3108634616123316
0.2199351263254648
0.2241199770376478
0.2445998059201334
0.267462026993742
0.2948980864358685
0.3270857380409572
0.36638667999299
0.4108720908073879
0.4597300968080513
0.5170917194256859
0.5873629658009349
0.6679886340916009
0.7528744793454658
0.8517754105912909
0.9772521113165256
1.1624455880064697
1.3927738568894747
1.5232754595441735
1.2290670263637813
0.217446711030455
0.2229630173752839
0.2460996572269504
0.2706827057943411
0.2995655826254146
0.3339545707910484
0.3753258166850708
0.4216719792644284
0.4750530728628011
0.5378443103295915
0.6130617289792081
0.7006907495098392
0.7957316545141448
0.9065013102208292
1.0597254874062974
1.2856545801238015
1.5257013467315448
1.5486411805146183
1.1178740416871265
0.2145577395717658
0.2220079807279114
0.2469602880484447
0.2733697452557609
0.3048326839846511
0.3410979447821518
0.383499900326707
0.4308408507597762
0.4876443723912079
0.5573248746395049
0.6381210298143813
0.7326193668612091
0.8385532586973502
0.964588989152008
1.1504987919451726
1.4099460696481427
1.6312417595659467
1.512066394718962
1.0296189804057363
0.210919585708935
0.2206557663856583
0.248427817884072
0.2766715230085403
0.3100878261768852
0.3472657076509271
0.390038748996204
0.4397000026643923
0.4996102509742249
0.5751245554181381
0.6637368269833469
0.7647108689346666
0.8798385918009186
1.0296285675448502
1.2449220270377823
1.5165882737651966
1.7027350238854462
1.4940891774584562
0.9428487782879916
0.2084356710623625
0.2197144059752181
0.2503656900901575
0.2803642463979433
0.3142012617891627
0.3526762056006062
0.3969200105423496
0.4490355099416607
0.5128653964140512
0.5928557071405214
0.6873766776112172
0.7956830510348082
0.918034534058686
1.0903003920845116
1.3360423856489396
1.6111598813311443
1.7112379948926812
1.4176488432135432
0.8594195902776361
0.2066677592551868
0.2193298944814828
0.2519419991896026
0.283541685962875
0.31787885695376
0.3577911587268085
0.4048371615542285
0.4584673826160544
0.5251525484683575
0.6082442654740229
0.709008580636845
0.8264652228514678
0.9586318041371829
1.1460754266842956
1.4167228461708423
1.6994340111576265
1.724655283603931
1.342250460348091
0.7867327226782109
0.2054454862870628
0.2194987828528557
0.2534503668318811
0.2864003757030771
0.3217544955781327
0.3629084893365958
0.411201249743822
0.4660197176184174
0.5355284797571067
0.622769491978252
0.7310166886825332
0.8546762836156985
1.0015167881800553
1.2096102801956177
1.505795697513514
1.7948328384325245
1.767025455562222
1.3061122592198091
0.7394665120169451
0.2050022810569237
0.2203849363795751
0.2556035530879175
0.2887773936190184
0.3251512669275295
0.3672976903791463
0.4160485229515002
0.4735049808727002
0.5460494869466882
0.6381770411680914
0.7496212275831444
0.8785227690018075
1.042743121884332
1.2692945308621395
1.5803867102606357
1.8476549670959408
1.7673469259566508
1.2663720324194945
0.7080462428044102
0.2043185070984471
0.2210050218862134
0.2572354006226904
0.2906256327156768
0.3277547652026036
0.370816425778718
0.4209592976304617
0.4819749761734022
0.5559907224868996
0.6510294080485658
0.7675485146836906
0.906553758067942
1.0863081376722044
1.320298991289689
1.641558683695839
1.8519361980815483
1.7019843797236915
1.203465678677518
0.6760790096379111
0.2034667907249379
0.2215510855625976
0.2583155535536572
0.2923010764952159
0.3301008314472932
0.3738998566801348
0.4252621033481276
0.4899045278647924
0.565692440962997
0.6623298016994471
0.7840565652912229
0.9305373733413932
1.116494483796189
1.3658287999297565
1.7093637589847566
1.8597485662551785
1.638258073525363
1.1431561993180854
0.647491762430284
0.2025285727990301
0.2220028927195944
0.2599378436972679
0.2943356133952499
0.3330080674331897
0.3773730240135451
0.429723237793329
0.4965537644181551
0.5758607390197306
0.6760879707589534
0.8004723727650976
0.9509420119008078
1.1418957967274157
1.4152126008051498
1.773832658483082
1.887463448645451
1.6247387156110134
1.1063485502195396
0.6230457259047557
0.2018454343148651
0.2226982335769992
0.2621733004129532
0.2964989391986005
0.3360090142321038
0.3811203933628279
0.4342849133512579
0.5013169436446708
0.5833729095467262
0.6886091764431157
0.8173705201082704
0.9730371687493669
1.1728650506967282
1.467029236984745
1.8273921784486744
1.9229818184144527
1.6279661631090194
1.08056914937786
0.6112905031129318
0.2019909803013505
0.2232862274401307
0.2636685255004098
0.2984386458498227
0.3383566251333727
0.3843128711710309
0.4385768407639182
0.5057047322815825
0.5895589942734277
0.6970239654495126
0.8276484507624012
0.9907290832597896
1.1980744215148722
1.509650848173695
1.8656330245842845
1.94269633129896
1.6330791927562922
1.0622174464928875
0.5986876727169221
0.2022914277998981
0.223839867573213
0.2649158154535516
0.3007766419549993
0.341288608841289
0.3878515656461982
0.4422089149857607
0.5099788776972142
0.5977318272694466
0.7070599417668042
0.8385709580576222
1.007536509580033
1.21644645319552
1.5396124046996689
1.8965207578599743
1.9622399907258548
1.638597140932805
1.0471622823480793
0.5839872421781167
0.202786571733606
0.2248491386321026
0.2667764827441683
0.3034578122416081
0.3441146627441451
0.3908277768882281
0.4452233616127432
0.5142900396013973
0.605225678387937
0.7163409226390116
0.851739700266009
1.0219297748002782
1.2305807178551478
1.5681440460588905
1.9349263975706237
1.9834965213743452
1.6317464617727846
1.037077089177108
0.5789525780842043
0.2035188517560873
0.2257614531778982
0.2683246322042933
0.3052683726121799
0.3452719106316987
0.3928751517266582
0.4478829887049916
0.5180657115046009
0.6108003773026232
0.7223853682084305
0.8591378094792353
1.0333546971780505
1.2503968363704565
1.5967597856303215
1.962616128538307
1.99560886637727
1.6279316852361347
1.034796218761397
0.5789888364055685
0.2043070128380003
0.2269204913466633
0.269175725684258
0.3065004222779538
0.3466072513747064
0.3950863440768549