/*--------------------------------*- C++ -*----------------------------------*\
| =========                 |                                                 |
| \\      /  F ield         | OpenFOAM: The Open Source CFD Toolbox           |
|  \\    /   O peration     | Version:  2112                                  |
|   \\  /    A nd           | Website:  www.openfoam.com                      |
|    \\/     M anipulation  |                                                 |
\*---------------------------------------------------------------------------*/
FoamFile
{
    version     2.0;
    format      ascii;
    arch        "LSB;label=32;scalar=64";
    class       volSymmTensorField;
    location    "0.0025";
    object      tauij_LES;
}
// * * * * * * * * * * * * * * * * * * * * * * * * * * * * * * * * * * * * * // 
 
dimensions      [0 2 -2 0 0 0 0];
 
internalField   nonuniform List<symmTensor> 
13597
(
( 0.1718443959463917 0.0477070308478079 -0.024039429708347 0.1679175707943801 0.0662718350406074 0.1771405483241482 )
( 0.1775883633249622 0.0502817786750575 -0.0265392645680807 0.1683965677538077 0.0655238306229596 0.1731905337784498 )
( 0.1871894482483392 0.0550810814480507 -0.0297095802076255 0.166191503822024 0.0651088732863945 0.1661792650845013 )
( 0.1989188493224964 0.0607933852204229 -0.0321154356345108 0.1616785473234059 0.0646196647332762 0.1580300631970719 )
( 0.2084311440362251 0.0655954900429416 -0.0338253295009439 0.156530161531921 0.0634063949067402 0.1509983025267938 )
( 0.2159921581908774 0.0698076467797065 -0.0344984462025718 0.1519458562591616 0.0617112869333037 0.1442879741986265 )
( 0.2234220835429855 0.0738082397482239 -0.0341563735285145 0.1471346944178074 0.0596595856124654 0.137299077688903 )
( 0.2302037542655917 0.0775049141344964 -0.0338593733028391 0.141588064074487 0.056915975469822 0.1294161320935701 )
( 0.2367432282794639 0.0812058942855293 -0.0332462901932582 0.1367761922457406 0.0543903977579341 0.1214969948698478 )
( 0.2428574610143942 0.0841297190834268 -0.0325599466942808 0.1323530108661011 0.0516228377756278 0.1136922222078561 )
( 0.2490778715524729 0.0867768949421237 -0.0316161191776668 0.1276999792240327 0.0482138905781363 0.1055952569119971 )
( 0.2557169618704657 0.0890203155289257 -0.0303082387282469 0.1236038499674751 0.0448920680576886 0.0978839091973337 )
( 0.2617762222779878 0.0899838381066137 -0.029012451516304 0.1196575925562122 0.041953513147519 0.091078692525648 )
( 0.267921067693371 0.090294765881531 -0.0274632202715232 0.1161794094034343 0.0393686209051493 0.0850028444581988 )
( 0.2745012380480416 0.0900999375163519 -0.0252276215884875 0.1134459892195447 0.0373681732008217 0.080043009662175 )
( 0.2818616613021922 0.0890145775512351 -0.0226333556217329 0.1108796317525324 0.0361261102316224 0.0771686148380637 )
( 0.2891443312762006 0.0865525322804834 -0.0203041695860308 0.107421354449218 0.0352279082882698 0.076177985753159 )
( 0.294898603640181 0.0828122996711735 -0.0174771650295412 0.1025633231277765 0.0348481492194576 0.0762348793267516 )
( 0.3015019510906194 0.0786953077130389 -0.0144561145013145 0.0983873478312671 0.0347965897608413 0.0774572076838149 )
( 0.1826170322186878 0.0524440238067537 -0.0302888294954839 0.1817595356919578 0.051503161533618 0.1576715484671232 )
( 0.1898620655854013 0.0554224393094702 -0.0313973458338604 0.1830206086372893 0.0498667946922211 0.1518449389068273 )
( 0.2008080088546836 0.0604186498515413 -0.0311296149923665 0.1819105328225526 0.0492271665029016 0.142846584719481 )
( 0.2133085262663238 0.0662461928323406 -0.028703959456472 0.1802794498943591 0.0484315456257476 0.1348973643871123 )
( 0.2208882702645637 0.070047555486915 -0.0263507732566898 0.1781088776240597 0.0467746646769772 0.1285812621939606 )
( 0.2260748021891084 0.0734649256244774 -0.0236101451981428 0.175857147460466 0.044502727755904 0.1220581451535498 )
( 0.2299179227510623 0.0770210073626049 -0.020865464644813 0.1732199520143306 0.0421916370352046 0.1154700132237435 )
( 0.232816558690293 0.0802360882593417 -0.0180720668438309 0.1708886125365161 0.0394647448361103 0.1088552329543851 )
( 0.2361072150359755 0.083675272986493 -0.0150777733585483 0.1686609015814766 0.0367950834899919 0.1022945874098777 )
( 0.2370923387511855 0.0864414405214989 -0.0124439307113036 0.1660168355592399 0.0341049095150334 0.0964187331119974 )
( 0.2367232117924534 0.0890697585517522 -0.0095014959136455 0.1629378098315657 0.0314474112282363 0.091163135334034 )
( 0.2360497640664184 0.0914617077514058 -0.0061952023672537 0.1595081212963769 0.0289978599252881 0.086742723405394 )
( 0.233879720622357 0.0926711698498955 -0.0020691300369434 0.1553696369278501 0.0274323830363925 0.084751279026209 )
( 0.2317007959212888 0.0933149714887097 0.0026494129876552 0.1504014192867837 0.0267420318095538 0.0851223871272241 )
( 0.2304262443358581 0.093954434433638 0.0076824417904747 0.1454978265293647 0.0266492839618301 0.0873017454075618 )
( 0.2295711309719922 0.0943632152171555 0.0129645486910772 0.1403703891839897 0.0273860328597997 0.091777919690845 )
( 0.2287130132888039 0.0939496312044328 0.0180490457955044 0.1347370052278358 0.0282576763424573 0.0977222100316455 )
( 0.22766422380351 0.092758827403397 0.0233511343401853 0.1281178216580397 0.0293194187412778 0.1051321424840373 )
( 0.2279931296472609 0.0920815965377781 0.0282729643524602 0.1215896950170507 0.0306568466196966 0.1135188370061837 )
( 0.1908235304125765 0.0557485282389156 -0.0265973824682603 0.191738658878244 0.0387037044651616 0.1423303600545541 )
( 0.1966095729960684 0.0573197308433933 -0.0238652830073184 0.1937294482607916 0.0360283463803989 0.1359369880624829 )
( 0.2042003398224393 0.0601293304669029 -0.0183876167001176 0.1941891835194362 0.0345336879140416 0.1279669769267206 )
( 0.2094221339643785 0.0623082919434096 -0.0121452520256582 0.1947242853233516 0.0322178930148468 0.1225838153267671 )
( 0.2087689635919343 0.0621780505729784 -0.0080513371762873 0.1945084703737833 0.0288316284752285 0.118073501458103 )
( 0.2067470289740107 0.0625939891904496 -0.0044064336522717 0.194475101942051 0.0257839068585027 0.1137450887007872 )
( 0.2028509613221616 0.0633364710083406 -0.0018451623580608 0.19405755976067 0.0226034539583332 0.1092460206713633 )
( 0.1969832130914163 0.0641131418186605 0.0005978499094417 0.1948339444194597 0.0189812660596401 0.1054174086745156 )
( 0.1918230060393036 0.0658113607515036 0.0031232153147591 0.1953331694984178 0.0161997387451032 0.1024652799427714 )
( 0.186174799813295 0.0677067450815722 0.0056688523496249 0.1945131738676457 0.0143071714442888 0.1009938731206002 )
( 0.1797450004832373 0.0698855855010994 0.0089904401873702 0.1933767700148548 0.0133546164290729 0.1017848130165437 )
( 0.1745231326991589 0.0725235382069706 0.0133848545564672 0.1909065114089475 0.0134232262117436 0.1047860430087858 )
( 0.1703405547109477 0.0750678060947 0.0184963768491914 0.1866042769212965 0.0146044217992397 0.1106559172313067 )
( 0.1671979123151226 0.0776370555639834 0.0234377046831925 0.1814512702924502 0.0162592779503108 0.1186922965321936 )
( 0.1654689531877538 0.0801426605880388 0.028127449615322 0.1761382702596599 0.0178421921094225 0.1276719579643291 )
( 0.1647257558055886 0.0826311905629515 0.0323631709093015 0.1709448896921331 0.0192795872951644 0.1366720659878013 )
( 0.164486909796734 0.0848265411989495 0.0358836152463331 0.166111911819802 0.0200678082217975 0.1454188851941709 )
( 0.1650473028546132 0.0870553005845709 0.0387850498582133 0.1609590364504638 0.0204529162017657 0.154371017207171 )
( 0.1667468918981499 0.08988793895209 0.0409631057265568 0.155195824076843 0.0205855389362287 0.162675724172148 )
( 0.1933106983711374 0.0538281407841735 -0.0171427412408614 0.1968891451091078 0.027352143593985 0.1330490075931016 )
( 0.1948922088296694 0.0518899104601308 -0.0117033879808447 0.1992330315879027 0.0237069870900847 0.1290129556500859 )
( 0.1944889048067865 0.0493847565676385 -0.0046592473826658 0.201470990642692 0.0208321164235462 0.1251831650606069 )
( 0.1891430443594453 0.0457561916064953 0.0010651784946912 0.2039546986742067 0.01643432859805 0.1237009904166441 )
( 0.1797193873632877 0.0414814198100961 0.0041108648577845 0.2064150777458418 0.0112483591195097 0.1226885537590196 )
( 0.1700156377675991 0.0388707931013813 0.0063290970832915 0.2099423392822489 0.0072642078069856 0.1217068308672448 )
( 0.1605725595457038 0.0376462902615141 0.0079277405400456 0.213729940453793 0.0037040377475732 0.1207171090341119 )
( 0.1517267591901059 0.038022920878471 0.0099492764651318 0.2182738498132924 0.0006370865544537 0.1211597174744351 )
( 0.144835426868879 0.0407435520202727 0.0123820326260118 0.2219240800038985 -0.0005487148522978 0.1227001047631875 )
( 0.1402556324248974 0.0447823835053013 0.0157525453667889 0.2239778877151647 -0.0003803636976177 0.1254735140187454 )
( 0.137000804588293 0.0495866658369925 0.0202584588895001 0.224803905740452 0.001040315618181 0.1307805762325454 )
( 0.1363090487105237 0.0555439350902283 0.0253281262364631 0.2230429974779823 0.0035921001979364 0.1381492831973277 )
( 0.1375343218065023 0.0617829657522672 0.0300653936506109 0.2182197691119944 0.0062252782602598 0.1468870803260842 )
( 0.140297358355124 0.0682074611050703 0.0343366943310285 0.2136783682655572 0.0082453325242018 0.1563464849411276 )
( 0.1436548888278566 0.0738144022569642 0.0378470630670764 0.2097467155505981 0.0093222077450724 0.1648233256646861 )
( 0.1466566841551706 0.0788528022101636 0.0400199244873412 0.20595551124862 0.0093386857443391 0.1714762823793574 )
( 0.1499707929681151 0.0836028356850994 0.0412325505808086 0.2027240185621009 0.0085630089180851 0.1770063013584392 )
( 0.1538029588044222 0.0884664895512348 0.0415777791881564 0.1995330478788183 0.0072002225464277 0.1818364661169559 )
( 0.1578575999550264 0.093972265912931 0.0409472562541508 0.1956919049621064 0.005106853804465 0.1858405354345222 )
( 0.1899355049850273 0.0452339134786562 -0.008587228407271 0.198946583663899 0.0172264195776273 0.1324085843046107 )
( 0.1850533845887911 0.0383306947833544 -0.0028893198605786 0.2004271325012393 0.0133891467049937 0.1326258852391406 )
( 0.175270312925805 0.0302810509388571 0.0031348554062131 0.204637675457257 0.0087822068166703 0.1332064657986453 )
( 0.1620626542803938 0.0226538971555023 0.0074183519115541 0.2108349591144564 0.0026471506033236 0.1351788401750352 )
( 0.1491124603436587 0.0171025483894951 0.0098920105876371 0.2172301438928637 -0.0029821656381479 0.1372257352637255 )
( 0.1390312290514828 0.0146818171782747 0.0121859880919647 0.225247615746473 -0.0072971487278186 0.1387830871375781 )
( 0.1312608850793711 0.0149168050063405 0.0151104118414503 0.2341355471233619 -0.0101358422713702 0.1407382231268868 )
( 0.1263537970081563 0.0182699740486844 0.0191025798256466 0.2428786996621538 -0.0109721187672149 0.1439827794595602 )
( 0.1245596866123851 0.0243289588409103 0.0238084222790186 0.2496661344965692 -0.0101818220020772 0.1479740674075844 )
( 0.1255850538873762 0.0318761200249122 0.0293362759730904 0.2543763501587806 -0.0082810907316526 0.1529376184383343 )
( 0.1288480599152376 0.0407600217858361 0.035154403751589 0.256354142654861 -0.0057235284233225 0.1597824488375846 )
( 0.1339745373275923 0.0506190775309554 0.0404095488530607 0.2553706053232925 -0.0033250011610492 0.1676852467739115 )
( 0.1398858730836731 0.0605827383227242 0.044134184728952 0.2525123913648794 -0.0016998560834957 0.1755869644564774 )
( 0.146067297877915 0.0701617379352127 0.046451335777455 0.2496546309364581 -0.0012851837898238 0.182968752902468 )
( 0.1516434891416366 0.0779943921025326 0.0477136742011669 0.2479533171001142 -0.0021628574340949 0.18868322478821 )
( 0.1564696749572385 0.0852893183740445 0.0476330903583591 0.2467461811475229 -0.0039979357741357 0.1924762076798057 )
( 0.1611176761592747 0.0924729765040849 0.046481102116369 0.2455081410019116 -0.0064645543885455 0.19499368868924 )
( 0.1656353594360262 0.0995859479454837 0.0447221015124993 0.244227166453594 -0.0093160956904941 0.1964528922934058 )
( 0.1702073820820817 0.1074686247138624 0.041909365554621 0.2423691408030818 -0.0128292140942396 0.1967008121319211 )
( 0.1805691651031096 0.0309282116534102 -0.0030987488126223 0.1972208886434772 0.009472655989663 0.1395875381260662 )
( 0.1693857959255368 0.019820855979823 0.0017351425267428 0.198669696995471 0.004922925138539 0.143554296895728 )
( 0.1532532966053958 0.0084271795866947 0.0075193676151238 0.2058681084495733 -0.0010720500044643 0.1473331031948165 )
( 0.138694665309706 0.0007672299966392 0.0122277314667553 0.2170990221753329 -0.0079527930930957 0.1512352733987164 )
( 0.1284974923792803 -0.0022659657527671 0.0162497054073223 0.228427572415693 -0.0128475155050105 0.1546144472023126 )
( 0.1234892371459064 -0.0017046431166457 0.0210381583396261 0.2411988428269194 -0.0158809812822558 0.1576018835317842 )
( 0.1215746492644582 0.0025360068793293 0.0271223083724695 0.2546564631683894 -0.017280146353094 0.1609227873260771 )
( 0.1225075500269573 0.0101644581587664 0.0340105542865783 0.2672649257472783 -0.0164543990662992 0.1656483195617764 )
( 0.1264844766276748 0.0200018348728874 0.0411241757464186 0.2770110040017375 -0.0146272862385815 0.1712559096881434 )
( 0.1323288378248328 0.0319144974690146 0.0476298854570856 0.2837339829491079 -0.0126451465554548 0.177718706039665 )
( 0.1389938634312136 0.0443768721478858 0.0523564265334745 0.2869465504371339 -0.01112503934147 0.1847612099515396 )
( 0.1458571283709901 0.0568813574767733 0.0550971132952817 0.2876294518724914 -0.0107175481215008 0.1906690540030771 )
( 0.1526491899217062 0.0697665219028972 0.0558392281190495 0.2874778765519532 -0.0112998695516302 0.1961582299260974 )
( 0.1585963598104756 0.0818412283388475 0.054918740125746 0.2868124774018608 -0.0128187885255263 0.2008023838694275 )
( 0.1638154621856739 0.0921654042010989 0.0534150948771719 0.2873519497843326 -0.0153666705424211 0.2035838189274265 )
( 0.1682924747557419 0.10139653741871 0.0511873934505781 0.2883555257943773 -0.0182366046680462 0.204691018499481 )
( 0.1726099252577751 0.1104647051597794 0.0482847819368173 0.2892941014244438 -0.0213155595744286 0.2050518750918056 )
( 0.1767820444582023 0.1197401383731902 0.0450522068222116 0.2901180863336965 -0.0243192728982539 0.2040332663460162 )
( 0.1814487964425279 0.1297375148410736 0.0411832586706888 0.2898870419763517 -0.0274404778484445 0.2013111984380856 )
( 0.1654853735259283 0.0131974276996036 0.0002405763317333 0.1915382412704193 0.0033357354610244 0.1522187139556907 )
( 0.150844569719801 0.0005883436828266 0.0056909001538564 0.1946713429428759 -0.0014978783067008 0.1585014528605804 )
( 0.1354135679325346 -0.0098510644204453 0.0128196980783571 0.207459854311245 -0.0083999433244168 0.1630076904972715 )
( 0.1253993273267089 -0.0147054662717096 0.0196354754495387 0.2243763786944466 -0.0153243451069384 0.1674932418922671 )
( 0.1212779852213376 -0.0138930654014251 0.0265822489263864 0.2406142624396808 -0.0190667013709013 0.1714050303400634 )
( 0.1216000925304213 -0.0085112361310811 0.0347408543838789 0.2579071046344329 -0.0206061010978906 0.1754254256168209 )
( 0.1244999125043064 0.0005792718001372 0.0435280243115819 0.2745908151892646 -0.0203254895238775 0.1799934110271223 )
( 0.1294643957515342 0.0123084376054754 0.0516992441341851 0.2898869764825635 -0.0195566437016727 0.1854436930603851 )
( 0.1360981034066181 0.0255969619580171 0.058585560895055 0.3017996455939404 -0.0185642695990265 0.191738582601754 )
( 0.1430062854760992 0.0402835194160601 0.0630346443488665 0.3095962612516712 -0.0176391892693127 0.1980038130389068 )
( 0.1494963365257969 0.0557746514994859 0.0642292054035046 0.3152280986676265 -0.0179957310444309 0.2035289290559866 )
( 0.1556195652735343 0.0712788506728672 0.0630795335614132 0.3188708018140076 -0.019426227721651 0.2075069766889861 )
( 0.1614831748298968 0.0858340035676257 0.060594598088548 0.3212994957341541 -0.0217374713153412 0.2107518073790949 )
( 0.1664952584854475 0.0994873766612098 0.0572823316056356 0.3234687312156564 -0.024340327366042 0.2129801181681784 )
( 0.1715530358262562 0.1122660313437095 0.053941425697595 0.3263672547952883 -0.0269651896108 0.2133561691868886 )
( 0.1761088309978449 0.1238749660792432 0.0505725916162655 0.3300271472580798 -0.029535906541654 0.2123175414308963 )
( 0.1804494109905506 0.1351800772963473 0.0470972005706927 0.3334140644669811 -0.0320161798316989 0.2102333805259076 )
( 0.1856941209618981 0.1472922393123284 0.0433927389805271 0.3361489281355199 -0.0341604716166144 0.2066919565409894 )
( 0.1920014820563676 0.1600634816572708 0.0395275795425407 0.3375767716346305 -0.0361388421903545 0.2015278968823633 )
( 0.1506654937284929 -0.0036869508131475 0.0037503320749963 0.1849062833086551 -0.0014711747730716 0.1670789060728607 )
( 0.1368198852075222 -0.0155968456790626 0.0113854629117242 0.1904167389966524 -0.0060376540599938 0.1731417718856314 )
( 0.125851593804313 -0.0223640784874119 0.0212543865792072 0.2093585568350352 -0.0134906394588749 0.1770202002734879 )
( 0.1212473292034167 -0.0222778553658384 0.0311252309672205 0.2321325680156332 -0.019808083402128 0.1818626307018741 )
( 0.1223332137738717 -0.0168045171361303 0.041040025986067 0.2528007559447503 -0.0224320800485266 0.1863310332730126 )
( 0.1266387987014395 -0.0069339479882909 0.0510373823382678 0.2733887931181614 -0.0230384975085157 0.1910874400191623 )
( 0.1322475941383825 0.006579623824533 0.0599607142208301 0.2926669715792087 -0.0225700569480058 0.1959754979105086 )
( 0.1386925403952647 0.0213077545246796 0.0667627277126366 0.3102767357543833 -0.0227568362148492 0.2018831984348727 )
( 0.1452647237329223 0.0368064432293242 0.0706846539256932 0.3244366642552073 -0.0237584491708894 0.2085807726265593 )
( 0.1504440207190096 0.0537292231879558 0.071206665038187 0.3340839684798671 -0.0243510479839283 0.2139599040239151 )
( 0.1556580055972752 0.0716672841144688 0.0689630619311953 0.3423590440588022 -0.0259665490048257 0.2186252580735048 )
( 0.1612245335642855 0.0897498043255068 0.0649216050888006 0.3491689707800603 -0.0280944303629339 0.2217493637786158 )
( 0.1661669472816365 0.1062808693804118 0.0601288928442129 0.3546578726772053 -0.0303802175448908 0.2220393304936693 )
( 0.1709414087812385 0.1218990098817606 0.0555277363961658 0.3608734992191111 -0.0327966873347298 0.2206591885381357 )
( 0.175960363585315 0.1366606465850804 0.0514414314925095 0.3669778563305643 -0.0346634142568774 0.2179435925796091 )
( 0.1814513042265091 0.1512015186113857 0.0477640528408057 0.3733171715202916 -0.0362967876914726 0.2144168910261069 )
( 0.1877976739435319 0.1660727631356018 0.0442002017328029 0.3790953574958751 -0.0376068973118523 0.2096100530658357 )
( 0.1960119345581507 0.1818697435515608 0.0405603425468938 0.3836921543447663 -0.0387693717051851 0.2035124123903628 )
( 0.205942763159651 0.198149126629819 0.0370952633808738 0.3865642398549098 -0.0399520020470727 0.1964343870859948 )
( 0.1390377114221055 -0.0176778844899574 0.0099896261981293 0.1775213726096821 -0.0048679989000261 0.1802226175737667 )
( 0.12847214395965 -0.0267432568397401 0.0207506481142267 0.186012631112073 -0.0094463778776436 0.185089380404627 )
( 0.1225493481192973 -0.0286140349319685 0.0335203437311006 0.2109750262621776 -0.0166359645929513 0.1889025781517495 )
( 0.1227662036097783 -0.0229399950281308 0.0454941692095403 0.2385180677434867 -0.0219167482542197 0.1938665801734891 )
( 0.1272406818724634 -0.0127429414614027 0.0567873817574774 0.2633401428381418 -0.02420427945529 0.1991801956841015 )
( 0.1334215034010515 0.0003584936677538 0.0661431895378986 0.2871405675317446 -0.0251113940521277 0.2043030542747342 )
( 0.1394962861656558 0.0161917206890734 0.0727306817362408 0.3089751529885297 -0.0258209437204577 0.2093437476039525 )
( 0.1450698096568033 0.0331299697333086 0.0760876376053383 0.328207217510939 -0.0271934439637411 0.2158757617250962 )
( 0.150010267508143 0.0504334977244598 0.0759724845552099 0.3445464283358287 -0.0295581032835184 0.2223613587568093 )
( 0.1539470659972465 0.0693608594995963 0.0731303413131683 0.3585530387879201 -0.0315227101283432 0.2275802133105238 )
( 0.1579630993502665 0.0890633354275722 0.068431493990731 0.3699073271316525 -0.0333060494985063 0.2306619893766924 )
( 0.1627465200648919 0.1089721752518535 0.0628638694318949 0.3801640851572324 -0.0350266151716657 0.2316144754647781 )
( 0.1675293885435305 0.1289286985139471 0.0569017532953462 0.3898984348353675 -0.0360769022696145 0.2284267974035331 )
( 0.1735149737472552 0.1479743390358782 0.0516017300805702 0.4001104847551974 -0.0372712495859423 0.2234141077627836 )
( 0.18016143979502 0.1655838198524801 0.0473600576718784 0.4099243711341034 -0.0385714876243924 0.2180365395003875 )
( 0.1881064810523616 0.1838716510544811 0.0437435939321449 0.4191750624358796 -0.0393171029490412 0.2118625876196049 )
( 0.1980272781811723 0.2027997861854745 0.0402132796003487 0.4275400048234388 -0.0395786402747855 0.2046258049851648 )
( 0.2105194030859179 0.2226755032934909 0.036711733563417 0.4343649065379172 -0.0401715273456419 0.1966888968364761 )
( 0.2260783469248548 0.2434316893090019 0.0333469107356894 0.4385351811023206 -0.0410556959455565 0.1886927496325531 )
( 0.131574127988686 -0.0272255997956905 0.0202377438539777 0.1702958440970344 -0.0064726175241621 0.1902230891389895 )
( 0.125022233085757 -0.0317515043847445 0.033667090482771 0.1833154164638759 -0.0113392058983425 0.1940909357397814 )
( 0.1228691892492712 -0.0282088886915868 0.0477214539878121 0.2137896772428716 -0.0182530700557168 0.1983155888443051 )
( 0.1267408739457677 -0.018467112999337 0.0599829819862036 0.2444430775981768 -0.0230955321985405 0.2041317607376172 )
( 0.1329752171924709 -0.0050277279019587 0.0700193533662706 0.272544950584928 -0.0257788695191904 0.2097735647461331 )
( 0.1392694689337626 0.0106487230958622 0.0771440921002503 0.2989320902360191 -0.0279597179815168 0.2158468197069893 )
( 0.1444629159184 0.0278819934615902 0.0804021535130245 0.323193708897739 -0.030219371659525 0.2223340372659477 )
( 0.1481010315582037 0.0463599308012485 0.0797067623136008 0.3457417600224235 -0.032879394714274 0.229403243071859 )
( 0.1510351391861869 0.0651843749406587 0.0763876436258209 0.3648967558502728 -0.0352814987426467 0.2356279356508036 )
( 0.1534198198187488 0.0852948177025319 0.0710638443587005 0.382576844953774 -0.0372526109969034 0.2390397253763311 )
( 0.1565485475700939 0.1068833032579694 0.0646405145223498 0.3985860991141822 -0.0385907340268856 0.2387730234268069 )
( 0.1615038466753354 0.1296788812186294 0.0581493741048555 0.4132153528781665 -0.0391598530397617 0.2356728157099741 )
( 0.1679337285125746 0.1530323574649273 0.0521027615504953 0.4274582984563783 -0.0390733476530249 0.2297082231137978 )
( 0.1763013184424791 0.175551197972524 0.0469350115733509 0.4414186114785121 -0.0392567380644817 0.2220518030897227 )
( 0.1862409847905502 0.1977093042843521 0.0427941640271864 0.4550629379639551 -0.0394576850485969 0.2143236046146571 )
( 0.1982663442760044 0.2205425747941504 0.0391774554795988 0.4682640703394743 -0.0394184042470699 0.2063179289585749 )
( 0.212870347727784 0.2441581136233527 0.0357254309247597 0.4802662686386371 -0.0395542007111423 0.197819235265611 )
( 0.2307596054586706 0.2687360202538039 0.0322793421294244 0.4895356036428963 -0.0402905176221738 0.1893290252108505 )
( 0.2530960537955958 0.2943835877779268 0.028794813090428 0.4946038793935857 -0.0414231055821818 0.1816694207913024 )
( 0.1278693267182918 -0.0318103613418405 0.032227233492618 0.1639054558170649 -0.0077364498508099 0.1964544212366827 )
( 0.1247962067635712 -0.0317178633736437 0.0471849046453988 0.181327229558049 -0.0123898115872957 0.1985878271469426 )
( 0.1255957220643188 -0.0234223803731812 0.0614210514336808 0.2165179287559117 -0.0191855415802902 0.2050267477699919 )
( 0.1305491275261859 -0.010540153602705 0.0718321982401545 0.2498109065458321 -0.0245440949722789 0.2128947519082668 )
( 0.1365634380632283 0.0054474258579747 0.0790713160565844 0.2802273520867064 -0.028092719033783 0.2189590355338395 )
( 0.1419142801982413 0.0226180420486105 0.0830871681239181 0.3094205338143023 -0.0314007310424503 0.2268941862130154 )
( 0.1458022812609611 0.0401065024103278 0.0830095016562676 0.3367558391269161 -0.0350040976937374 0.2349318939342467 )
( 0.1480061825030014 0.0588957829313648 0.0794019606196765 0.3628878140413607 -0.0381670921562297 0.2419270859875332 )
( 0.1491189838974254 0.0788404584194235 0.0736471170623578 0.3859777935676822 -0.0405693994525481 0.247073893704202 )
( 0.1500847505029374 0.1004587721180965 0.0666491632132613 0.407313006020989 -0.0414925729042335 0.2474491993968542 )
( 0.1535101139167441 0.1245415010144731 0.059555816798887 0.4284209390354299 -0.0415312231324843 0.2434516797831295 )
( 0.1603047568951268 0.1515272905621208 0.0527533552427597 0.448741630559993 -0.0408326611976449 0.2363323537730135 )
( 0.1695141398354512 0.1783290997891367 0.0471725664651694 0.4674015350618178 -0.0397646696815911 0.2277969226933411 )
( 0.1811170582544532 0.2047802573416767 0.0422844774684855 0.4855534257570278 -0.0393804398060774 0.2182226602260037 )
( 0.1952627589213917 0.2322638265873745 0.0381521525362122 0.5039692169318342 -0.0387125093636926 0.208333667143029 )
( 0.2119873035684478 0.2602068853224383 0.0345325076282084 0.5219705122345525 -0.0386857720841585 0.1992971568021474 )
( 0.2321933045737379 0.2893879593981621 0.0310487804947678 0.5381371850712847 -0.0392188222143855 0.1908225030252482 )
( 0.2567346474059456 0.3193625988683298 0.0275224785874617 0.5495411878764648 -0.0400331704667235 0.1828263016385923 )
( 0.2875445316903678 0.3509154873866708 0.0236801795918275 0.5553957995861906 -0.0412854449252788 0.1761675366362973 )
( 0.126179448952059 -0.0324499711680709 0.0453343952228633 0.1578669246505389 -0.0091124437246315 0.2001313166318713 )
( 0.1262747035043061 -0.0284892044918096 0.0606511790989582 0.1791596039651424 -0.0135163043456203 0.2018225643049085 )
( 0.1295038983982316 -0.0161765439283785 0.0730206611875172 0.2190205903463376 -0.0206796441241032 0.210783081678506 )
( 0.134139611385361 -0.0008957521417124 0.0807160802949359 0.2546337844696849 -0.0265949173322467 0.2204070266156262 )
( 0.1392093699987961 0.0161892180749511 0.0845103945445044 0.2871054750220278 -0.0309369795268819 0.2280006653571558 )
( 0.142238571930223 0.0339434255527173 0.0846030176812247 0.3193011487186965 -0.0352468207051581 0.2369914078152252 )
( 0.1441675599234248 0.051478139253167 0.0818489197512042 0.3499851575050945 -0.039176810879419 0.2458932667451313 )
( 0.14470955617679 0.0706006489495856 0.0762649816611975 0.3792888964633865 -0.0420164397552802 0.2528050267276589 )
( 0.144268380223381 0.0914174525734582 0.0689957917074352 0.4069166196435103 -0.0438024749405397 0.2550229944957771 )
( 0.1456325366916725 0.1153084057885882 0.0613016953070465 0.4334751808564368 -0.0433720034643386 0.2520472804881538 )
( 0.15049081124653 0.1426666118953912 0.0538563704618691 0.4600258167382969 -0.0422865877132544 0.2447959255730703 )
( 0.1596750836913892 0.1734152317820441 0.047523838451149 0.4863773659403391 -0.0405796540766478 0.2350072924485474 )
( 0.1724965299670665 0.2050887560728691 0.0422641816588285 0.5108162489830128 -0.0387594717257077 0.2237785470106978 )
( 0.1885672429434304 0.2369171547854467 0.037593758755474 0.5343507771861203 -0.0381366473620346 0.2122706831521385 )
( 0.2073437480052336 0.2696931271293047 0.0334491255527553 0.5584982061188164 -0.0376905575115841 0.2015293234702513 )
( 0.2287985695761202 0.3027200669125633 0.0297439246052243 0.5815027677175992 -0.0380367065972298 0.1923555269091618 )
( 0.2547779132208776 0.3371575330106939 0.0262111930094941 0.6010911066224555 -0.0387811655833866 0.1845424002390814 )
( 0.2879246879889407 0.3738715395395851 0.0224886103953604 0.6148158280880085 -0.0398096973564738 0.1777401639974081 )
( 0.3296151322772179 0.4128365252944334 0.0178754338228013 0.6217665483228817 -0.0416898079854038 0.172620652166546 )
( 0.1269479219597193 -0.0301047676848848 0.0588597267472716 0.1514163580398189 -0.0100614486073902 0.2021186444670795 )
( 0.1281117595413593 -0.0222110970150702 0.0721277859129546 0.176738434575561 -0.0148021039803774 0.2064713401595325 )
( 0.1322088436785571 -0.0075261603700269 0.0810071824856355 0.2209118962518324 -0.0228483644953584 0.2170908126715059 )
( 0.1369749449359569 0.0087514253375702 0.0859350234848905 0.2587708091126667 -0.0289877727615689 0.2275587910922768 )
( 0.1405179290297533 0.0260507316299527 0.0865654332799509 0.2945374932217826 -0.0341553603488271 0.2369312150097134 )
( 0.1412201761738777 0.0440126927933797 0.08342071716656 0.3294946133343648 -0.0388774659949842 0.2464760558830784 )
( 0.1405744787673375 0.0620650789777672 0.0784008860352429 0.3628235388089398 -0.0422957520353969 0.2555859784626154 )
( 0.13919599844766 0.0812977124695966 0.071368012019693 0.396288598100437 -0.0448089019795132 0.2615389408119999 )
( 0.138447517290376 0.1032067909934095 0.0634752669784981 0.4296014858754351 -0.0455494512994057 0.2607457151926062 )
( 0.1409399237545272 0.1297805723459732 0.0559092915677682 0.4613648082921582 -0.0437617416364405 0.2542425607650724 )
( 0.1480976620798355 0.1614303017325443 0.048476865411964 0.4942014564313494 -0.0416166253925863 0.2438151471831764 )
( 0.1603429796235654 0.1963282144309658 0.0426245552048248 0.5270197429641351 -0.0392238327491677 0.2315207932172452 )
( 0.1767908487058141 0.2328941386832489 0.0374667366031059 0.5582660053051907 -0.0374416773455619 0.2183842671116968 )
( 0.1976204244386569 0.270877684868306 0.0328913179314142 0.5891036144002852 -0.0367893345667903 0.205809856887743 )
( 0.2207998491108039 0.3085095264966654 0.029088574500125 0.618907627224066 -0.0364837558125316 0.1953314342896994 )
( 0.2476396825528866 0.3467446072781041 0.025279784208466 0.6458964324290005 -0.0369464400588307 0.1866543381977127 )
( 0.2813663274285423 0.3882619292225127 0.0212628790506495 0.6699152868324082 -0.0381257069536057 0.1794350080046074 )