/*--------------------------------*- C++ -*----------------------------------*\
| =========                 |                                                 |
| \\      /  F ield         | OpenFOAM: The Open Source CFD Toolbox           |
|  \\    /   O peration     | Version:  2112                                  |
|   \\  /    A nd           | Website:  www.openfoam.com                      |
|    \\/     M anipulation  |                                                 |
\*---------------------------------------------------------------------------*/
FoamFile
{
    version     2.0;
    format      ascii;
    arch        "LSB;label=32;scalar=64";
    class       volSymmTensorField;
    location    "0.0082";
    object      tauij_LES;
}
// * * * * * * * * * * * * * * * * * * * * * * * * * * * * * * * * * * * * * // 
 
dimensions      [0 2 -2 0 0 0 0];
 
internalField   nonuniform List<symmTensor> 
13597
(
( 0.236453282700665 0.0711353144973575 0.0649747364566335 0.0624842734030591 0.049143650244527 0.2415465801411042 )
( 0.233926492787314 0.0724045002148491 0.0678871659086441 0.0608780266776744 0.0483210007297663 0.2379832353334279 )
( 0.2287996703106467 0.0741268983413699 0.070449812976293 0.0580589809108008 0.0455065680112224 0.2332143958497292 )
( 0.2248002382861187 0.0761558812557887 0.0715208993902171 0.0574309858701512 0.0407716706284516 0.2265749493303515 )
( 0.2230259338679613 0.0777658496597744 0.0700998398257628 0.0591889047375761 0.0355286591619779 0.2189777743378186 )
( 0.2219997504376119 0.0785328987713531 0.0666786787596994 0.0607113089034889 0.0308951692259945 0.2106134694737869 )
( 0.2219995114730476 0.0788849738525995 0.0622000521595144 0.0624064438316598 0.0262242815886821 0.2007888351851588 )
( 0.2230006900368775 0.0795119464736536 0.0566146403150762 0.0649211869942814 0.0214340544557604 0.1892550132015779 )
( 0.2243845086674665 0.0802519145217071 0.0503803074749815 0.0675252648369361 0.0173154582742765 0.1778697542067443 )
( 0.2268747139862748 0.0807802723630795 0.0441072642578892 0.0696151539636241 0.0133853476290449 0.1663713311862327 )
( 0.2302704728764333 0.0814646703177927 0.0372089265126696 0.0709605696528108 0.009194529757343 0.153795046204647 )
( 0.2346091647330779 0.0823327795369196 0.0301700904030043 0.0721692398461688 0.0055603139673291 0.1425881895344788 )
( 0.2400473572715708 0.0831428780128472 0.0234163138371208 0.0732401310189166 0.0030212128903715 0.1338573612206158 )
( 0.2447062503406093 0.0842613557793923 0.0165146541235127 0.0740062987331651 0.0007662437685891 0.1266195943635344 )
( 0.2483042555720855 0.0855658438987331 0.0097179180488316 0.0746122033821539 -0.000945279527497 0.1220843968938545 )
( 0.2528782835126851 0.0869051733703454 0.0034883157435162 0.0752597557382335 -0.0018941891111791 0.120711620930854 )
( 0.2586223641335907 0.0884218058041926 -0.0019327348348395 0.0759486942344227 -0.0023731080268672 0.1212004493115945 )
( 0.2635723013858451 0.0898675337360062 -0.0065766679966198 0.0765353324178241 -0.0022553655554277 0.1239287830651554 )
( 0.2680156880660489 0.0918229010537573 -0.0111254943438718 0.0779074640790258 -0.0016072123271062 0.1288067827776301 )
( 0.2358845788132702 0.075990387520449 0.082408874013141 0.0703818562638009 0.0486755039063277 0.2048231622897048 )
( 0.2333933902566217 0.0781299631967569 0.08556856567719 0.0687503241458794 0.0459788855134389 0.1963191773343028 )
( 0.2291137026402204 0.081317408961 0.0860201536522385 0.064807898246292 0.0395332068617046 0.1847596934685487 )
( 0.2277229773541259 0.0848804860321583 0.0838377096959413 0.0638670439044486 0.0316168780179779 0.1749417249803798 )
( 0.2279351457542455 0.0873273342435284 0.0804956662411858 0.0654754969003201 0.024814896021506 0.1670984999040084 )
( 0.2286506979236022 0.0893775469778694 0.0765216686410785 0.0676444388638976 0.0187446887137894 0.1599644793513253 )
( 0.2302144678926119 0.0912071931235893 0.0716331863778765 0.0697706474802474 0.0132093964198173 0.1544923444817479 )
( 0.2325792196935391 0.0929702969348246 0.0663017313176628 0.0723110819295571 0.0077997969822659 0.1504596820462451 )
( 0.2351986725911072 0.0945336729219821 0.0606892951957757 0.074587212165793 0.0030352879591174 0.1482353443140087 )
( 0.2381454395417736 0.0959068485107551 0.0556093350482155 0.0763425671903366 -0.0011901205830152 0.1477746332142709 )
( 0.2416905732132542 0.0974161885379309 0.0501288327694596 0.0773578092353846 -0.0054008685089205 0.1490006460434361 )
( 0.2452126892924143 0.0991648407837022 0.0444252152979621 0.0783739585774951 -0.0088620255401609 0.152914671254206 )
( 0.2489413665913109 0.1007239169331726 0.0399332540016066 0.0790943499571149 -0.011339920915217 0.1594579594882058 )
( 0.2526955805939405 0.1027441054735755 0.0357153004772329 0.0800179004945982 -0.0130257542553398 0.1678548422736559 )
( 0.2548560670563198 0.1051170642185147 0.0312705272940045 0.0814666827225036 -0.0138840992204868 0.1774991856569477 )
( 0.2563484718690427 0.1072202102207789 0.0278029322953808 0.082769207893868 -0.0138574986315618 0.1874812060323938 )
( 0.2582811522073465 0.1092708715406111 0.0256045481173956 0.0843406437849922 -0.0129141478157949 0.1964985869361051 )
( 0.2601492832525404 0.1115205788479932 0.0243652458189978 0.0863930018877347 -0.0111719957748995 0.2054208125613252 )
( 0.2620751442713209 0.1141583301215346 0.0230126615048743 0.0888547077590442 -0.0086750019376623 0.2139584581281438 )
( 0.2311610249895498 0.079526953326377 0.0988184313662643 0.0812628966958301 0.0437831998293651 0.1744704180281236 )
( 0.2273615200342511 0.081632210456984 0.1016767637413873 0.0811521592962954 0.0385776949874148 0.1630623101726669 )
( 0.2232236143147148 0.0854826352591286 0.1000602797380375 0.0775513053823421 0.0297592379182122 0.1508040664928956 )
( 0.2215761282616666 0.0894520533268763 0.096380910667369 0.0776931509539669 0.0204793383308139 0.1442016529467894 )
( 0.2211985509625472 0.0917179983837314 0.0932712069576285 0.0804578955415628 0.0133093843995013 0.1420101438912988 )
( 0.2215844903523476 0.093661537666001 0.0895656652000093 0.0832342923547618 0.0070926225146212 0.1429349484982905 )
( 0.2221137884858973 0.095014000943635 0.0851974024923396 0.085404026752849 0.0013825295515678 0.1461483873667407 )
( 0.2219525779392544 0.0958267531216403 0.0808475560623415 0.0875820031977636 -0.0038507348343504 0.1513181176124182 )
( 0.2223584242543387 0.0966001431618952 0.0762768257015498 0.08901360582638 -0.0083150427999702 0.1581359776069413 )
( 0.2237086837865054 0.0972264880869281 0.0719611393879119 0.0896416405007037 -0.0121821788259881 0.1669281051709593 )
( 0.2247946199877479 0.0979266078007267 0.068091348776684 0.089816206265105 -0.0148859488013855 0.1772375364807178 )
( 0.2259068831893907 0.0988986492055243 0.0646453918919752 0.0900094530539171 -0.0164952065979066 0.1888172874739185 )
( 0.2279730597417078 0.1000807036816395 0.0626911620550938 0.0903041085659444 -0.0168624311970751 0.2005100272467039 )
( 0.230378170950264 0.101959280289954 0.0616389846443157 0.0909891281810303 -0.0157375355860018 0.21084824279164 )
( 0.2327164939808914 0.1043441646355868 0.061018454670606 0.0924639981374039 -0.0136125943412405 0.2197387319700385 )
( 0.2349729011681786 0.1067365226458884 0.0611670719273551 0.0941830648822942 -0.0107113850927211 0.2265803116184009 )
( 0.2371365038080863 0.109323447977827 0.0620717473180826 0.0963404243612881 -0.0071125572965524 0.2315738920424782 )
( 0.2395964899854104 0.1124140320064874 0.0634652535185532 0.099261955785469 -0.002924486784802 0.2355577253452481 )
( 0.2428187081055655 0.1162543771185306 0.0644519179666778 0.1027173938744865 0.0017909600730362 0.2386683403909248 )
( 0.2221732220181334 0.0794951276798896 0.1109720384133555 0.0961360903885241 0.0368403642497157 0.1536243404445207 )
( 0.2171652090141476 0.0808389695930293 0.1127645627333967 0.0981436305322655 0.030513172590855 0.1441483480353715 )
( 0.2121579402443721 0.0842497697781773 0.1096798958431247 0.0953562726142702 0.0208642249550182 0.1368894295117262 )
( 0.2085265032642556 0.0870041083929767 0.1050169073853585 0.096031423141113 0.0111584214930305 0.1371947359470425 )
( 0.2058458585039308 0.087683250568255 0.1014079085635963 0.099002334008441 0.0042708735920321 0.1413679643743769 )
( 0.2037000010609496 0.0882141844366673 0.0975106550303226 0.1012196656174272 -0.0012426547970774 0.1483618898026189 )
( 0.2022841260607118 0.0881585460731255 0.0937254507569518 0.1026495337732271 -0.0061820651948154 0.1571336473628566 )
( 0.2011073205289384 0.0873573211301961 0.0900945809109503 0.10327821684195 -0.0101968414393025 0.1667890087115944 )
( 0.2011945164824857 0.0869156257200256 0.0866853729230257 0.1027673691494219 -0.013044196866943 0.176421694826452 )
( 0.2024492484777512 0.0868954967201032 0.083864210977817 0.1014290540719006 -0.0150051852850373 0.1863759178888597 )
( 0.2045920746810377 0.0871352004194224 0.0822551273535524 0.0998067305426435 -0.0150981156120108 0.1956073329125566 )
( 0.2081406898687124 0.0882129218260291 0.0816034905805192 0.0984938557997567 -0.0135966624592239 0.2038285411064316 )
( 0.2135057785963726 0.0903414165489812 0.0823170492876092 0.0983043347415338 -0.0108202462081449 0.2111304143409974 )
( 0.2201531545368597 0.093743881987327 0.0834640373575344 0.0996976732510744 -0.0068908414989533 0.2169183727385853 )
( 0.2265366713192866 0.0976491571343484 0.0848317794277754 0.1022028492633995 -0.0026918693096723 0.2213450891968247 )
( 0.2323631984611828 0.1016288831583851 0.0859947794240561 0.1050593627571398 0.0013836454632238 0.2244407149449881 )
( 0.2378481269753122 0.1059077562972586 0.0866155347775286 0.1083742626019456 0.0055128111638679 0.2260602087038479 )
( 0.2439242214313802 0.1107361589116389 0.0872430792007869 0.1124243073826 0.0096673326697162 0.2273501276469435 )
( 0.2504481223056338 0.1165799986662826 0.0871264741554697 0.1171236851057766 0.0138683633771786 0.228490100449693 )
( 0.2113413916967322 0.0754730477094803 0.1180725572020429 0.1150362220626824 0.030947363346901 0.1442339425160201 )
( 0.2044001889627483 0.0754005069361853 0.1172432068279606 0.1165244433846553 0.0242860631255875 0.1383052357110742 )
( 0.1980600511630092 0.0777190142425168 0.1126376716447231 0.1137210110128278 0.0145073550550349 0.1359541905874479 )
( 0.1930701612294777 0.0791645373055353 0.1069716576641893 0.1146866828087549 0.0053017611719564 0.1416334105916578 )
( 0.1888215751262372 0.0782887769798943 0.1022956773856405 0.116644239652746 -0.0005532537607041 0.1492921388122188 )
( 0.1863491488887916 0.0772364613134982 0.0981859795170145 0.1169549914598237 -0.0050606389501915 0.1578458955319631 )
( 0.1851306041153294 0.0763516139316333 0.0944789427087341 0.1163069029648803 -0.0084119765112369 0.1665623172035731 )
( 0.1853610230391525 0.0751508548741623 0.0917008889298013 0.1144638933329433 -0.0103255375754973 0.1743191633005956 )
( 0.1881946132384824 0.0743061412084291 0.0900407591193972 0.1116959470148659 -0.0110562786822631 0.1807693355042983 )
( 0.1932052206583503 0.0746891045635104 0.0895628650968641 0.108874700205371 -0.0105549677817553 0.1867839248019437 )
( 0.2007283174600621 0.0765966729871971 0.0902575897206634 0.1066865677483439 -0.008610765546017 0.1927165250479615 )
( 0.2100495379174342 0.080277000964597 0.0914162720231126 0.1061040275804345 -0.005163284776003 0.1983283188468029 )
( 0.2206638331454546 0.0854287775187268 0.0928998164815559 0.1077146887135431 -0.0008256493736406 0.2031711675674412 )
( 0.2315719471028435 0.0917952623503764 0.093587274692263 0.1113765746381235 0.0036458477882678 0.2072472785327256 )
( 0.2406024918828096 0.0978749406536405 0.0934845476938437 0.1157642526533504 0.0076504956477975 0.209595351527224 )
( 0.2484120582372903 0.1039342085928068 0.0925065161913 0.1204309637191656 0.0110671555736695 0.2111251103879982 )
( 0.2552854186504382 0.1103122241041489 0.0905933858392007 0.1254845845463507 0.0140439509917321 0.2117104151622439 )
( 0.2616748977700123 0.1165888451778454 0.0882502086284093 0.1308896900424445 0.0165959771562569 0.2119277358339826 )
( 0.2675971103725627 0.1235582285078112 0.0847128737836034 0.1367506148875466 0.0188011900136493 0.2117019731412585 )
( 0.1994344520847756 0.0679846160517396 0.1192229247016883 0.1333568828350654 0.02712310122796 0.1418712018475968 )
( 0.191041512718237 0.0669715480156405 0.1155807370729247 0.1341758503366082 0.0202671132941643 0.1379795542278846 )
( 0.1830614537847972 0.06854015044017 0.1091088469102463 0.1306317251827839 0.010826845269973 0.1389079568608209 )
( 0.178124958343876 0.0692013558389042 0.1028542464551258 0.1302634026648653 0.0026543743611098 0.1469292713034587 )
( 0.1750207174853618 0.0678132856457754 0.0979304503980416 0.1301839976045422 -0.0019461014183381 0.1541285113241188 )
( 0.1744678068932732 0.0662570931297038 0.0942236722760089 0.1281602624700358 -0.0052802392178605 0.1607085459819122 )
( 0.1758996641977657 0.0656374845003074 0.091316274274301 0.1250988876154631 -0.0071549775530203 0.1663778794749449 )
( 0.1798598580375238 0.0653149538973412 0.0896828549437459 0.1215558173662846 -0.0072549545977632 0.1701746942027012 )
( 0.1872959839043574 0.0659224343053915 0.0894732884630021 0.1182628638795959 -0.0061135113741058 0.1730919384110665 )
( 0.197231432155618 0.0690796257419201 0.0900505123933287 0.1161542454668651 -0.0038408400072734 0.1770723570438796 )
( 0.2087634290663593 0.0743303712609116 0.0911357567548651 0.115815534628087 -0.0007779419875561 0.1821155866476474 )
( 0.221070747718637 0.0814422964046902 0.0917550397872262 0.1178528961991052 0.0033278373517372 0.1867238151631033 )
( 0.233237809941485 0.089677295259742 0.0908204982677996 0.1222812412480915 0.0074493224387984 0.1906193384009579 )
( 0.2436789203645913 0.0982149461778638 0.0883577870203436 0.1281642224669945 0.0107176771220884 0.1933575578238724 )
( 0.2515670961973789 0.1062071413698148 0.0847798782156029 0.1345097173655465 0.0132968741073709 0.1944711819445859 )
( 0.2575812339011853 0.1135432707065598 0.0802241355688 0.1406724859860724 0.0151499773835718 0.1946676378982962 )
( 0.2627484345780856 0.1207261590102692 0.075199585055178 0.1468427100941215 0.016261667635504 0.1941360588210768 )
( 0.2670190424845055 0.127588979846261 0.0696066981513987 0.1529750300034267 0.016707105260136 0.1927460778634219 )
( 0.2705777613619376 0.1349144319432553 0.0630107036834019 0.1592075425532954 0.0168360455182934 0.1907824388998036 )
( 0.1869656289434378 0.0590168679264855 0.1149538463933736 0.1510475464965367 0.0246291024476979 0.1416062808792079 )
( 0.1779845992814166 0.0579965529426281 0.1092435718498103 0.1508907989751668 0.0178531739269385 0.1393069743975821 )
( 0.1704229528625944 0.0599932092510954 0.1019368189578495 0.1457139035005349 0.0086073955214019 0.1419981978629392 )
( 0.166589141536589 0.0606940850103405 0.0954795870741694 0.1424072568398543 0.0016534527466927 0.1488108266187216 )
( 0.1660007391977711 0.0597263021783421 0.091005859779725 0.1397153504080821 -0.0017843439609606 0.153467682603404 )
( 0.1684071075815566 0.0587270026826074 0.0879388584949935 0.1361635447374374 -0.0037952649177356 0.1566777282821368 )
( 0.1735029769385213 0.0591995056095133 0.0862159090499372 0.1317027665261988 -0.0040791018671797 0.1591681714097374 )
( 0.1811790524139956 0.0612274560053896 0.0852650004365552 0.1282387863269864 -0.0029547123410552 0.1606623024293108 )
( 0.1910326526495731 0.0648915624071765 0.0847493080208752 0.1263449803420172 -0.0005964046905445 0.1619483226455194 )
( 0.2027229562987952 0.0712106292758581 0.084679962037066 0.1262302230945838 0.0025288641946325 0.1649984470814406 )
( 0.214886920535916 0.0796061728177282 0.0836265163508227 0.1287422062921932 0.0059077605742586 0.1688401906869127 )
( 0.2268918862741785 0.0895390418638123 0.0812722356221485 0.1340540107667742 0.009347559822924 0.1728842352989654 )
( 0.2375945994523386 0.0997572855378991 0.0772395120452353 0.1410678365694463 0.0119720460069471 0.1764552671594294 )
( 0.2462975966466916 0.1095484463400849 0.0717299793077974 0.1487681020102367 0.0133599960192655 0.1781357975830416 )
( 0.2525295013284818 0.118876785600286 0.0654145734885955 0.1568372323649923 0.0142045095361836 0.1785518695013733 )
( 0.2565443251789497 0.1270158328018321 0.0585712057995726 0.1643133871867928 0.0145378117515615 0.1778388320119325 )
( 0.2599054116381051 0.1348159595711712 0.0515868614106442 0.1712813529002318 0.0141772165902533 0.1762432992202322 )
( 0.2631725663633061 0.1430458504743557 0.0442248874075915 0.1782827848248829 0.0133654687629624 0.1738595806505175 )
( 0.2663719476688682 0.1517713921450673 0.0365586359930354 0.1851440800914004 0.0121904558665136 0.1706079458488173 )
( 0.1750200221893701 0.0507087838609435 0.1073782458839005 0.1664017098170784 0.0227743648046783 0.1419365588797943 )
( 0.1662953599340514 0.050515967860072 0.1006163823461386 0.164362047900298 0.0159985216355233 0.1403226797948811 )
( 0.1606338313394893 0.0531484285658699 0.0933322747878439 0.1571378174584385 0.0069263570483785 0.1425854484994675 )
( 0.1585517314471526 0.0543508478929239 0.0868995931362994 0.151502977995963 0.001070411776839 0.1467779005445462 )
( 0.1601514958965727 0.0545453158686475 0.082619515369027 0.1469226058936548 -0.0011971920218676 0.1484742538991677 )
( 0.1653510086688331 0.0554798537893017 0.0802211221049491 0.1425910124769867 -0.0016587549054581 0.14934462005912 )
( 0.1724669107479575 0.0582388164419886 0.0785238061136123 0.1384253708736209 -0.0002862638381647 0.1494586272926011 )
( 0.1817596428887165 0.0628799342730167 0.077149196863762 0.1365416553604999 0.0018098566192459 0.1493971235681862 )
( 0.192575329514855 0.069549794113978 0.0758527954399189 0.1371544672716412 0.0044321069742203 0.150130556532981 )
( 0.2038922847217122 0.0786960809785746 0.0738792806604808 0.139665278535173 0.007641155486979 0.1524960341346326 )
( 0.2156200767998824 0.0896802944535083 0.0697999611709833 0.1454837882334169 0.0104408946141102 0.1557789136251642 )
( 0.2270183406292924 0.1013008932607768 0.0646721780404355 0.1536998254190546 0.0123644086328811 0.1601039971725232 )
( 0.2360263702557203 0.112796010646949 0.058469748062912 0.1629263489602532 0.0131792621717791 0.1630662305264211 )
( 0.2424091246868834 0.1238792380131947 0.0509868248520693 0.1728135015002091 0.0129315858796079 0.163825696655098 )
( 0.2470724137725659 0.1341296935058642 0.043510026017161 0.1822091258679756 0.012439793391927 0.1636915611310465 )
( 0.2506302272179897 0.1437324209469375 0.035963303381084 0.1911839635582415 0.0116276967865256 0.1622662296026955 )
( 0.2539962651388401 0.1535307879390715 0.028466850468362 0.1997620173750221 0.010452518618001 0.1600541966774008 )
( 0.2580880290906636 0.1640633604319168 0.0210972216276887 0.208184595947549 0.0090667151187925 0.1574853682375672 )
( 0.2629174456411974 0.1750782257126348 0.0141717170261258 0.2161247465781242 0.0073635256131839 0.1540852303406308 )
( 0.163519724629086 0.0441372289155949 0.0979681652186456 0.178448131603816 0.0209777039225595 0.1414158605279698 )
( 0.1555089917662553 0.0450156740282822 0.0904654186845544 0.1746845107363306 0.0137251584145326 0.1395400904861256 )
( 0.1517913859233435 0.0482588176777308 0.0834734991537856 0.1655296306433943 0.0052484179195383 0.1405860097815526 )
( 0.1520956122891948 0.0505404241145041 0.0777388505543396 0.1584929809746357 0.0007659939073286 0.1425175489691434 )
( 0.1556181512823633 0.052684490701937 0.0734857212709227 0.1533289689446986 -0.0003411930324538 0.1418288059574211 )
( 0.1623688181880933 0.0558583884514889 0.0714173455571647 0.1492516911998945 0.0003808321431362 0.1408771897995213 )
( 0.1701972589271567 0.0611656800977369 0.0692249364652963 0.1467979913470177 0.002723317898936 0.1391584545381557 )
( 0.1801922858109585 0.0682836890391548 0.0670403489977461 0.1467076052911884 0.0054430757925628 0.1384505280214785 )
( 0.1913268651892198 0.0774642837279927 0.0645968829348403 0.1499671629639026 0.0081353741081719 0.1395678716817767 )
( 0.2013597234738757 0.0887395076837928 0.0600052497392646 0.1562523259720565 0.0106604162993173 0.1413630013076587 )
( 0.2120591922222199 0.1013672986853926 0.0539974378009874 0.1651134184389773 0.0123869814018283 0.1446604816712527 )
( 0.2223249767820068 0.1142845789018427 0.0471150469465898 0.1756667340020451 0.0128411305804945 0.1489226802081545 )
( 0.2300844152944635 0.1273311605264588 0.039440460476114 0.1874882843163989 0.0122478979958116 0.1508713609257248 )
( 0.2358406564244066 0.140216551240626 0.0312972557023745 0.199842475559744 0.0110082932344268 0.151285950998757 )
( 0.2404426449809734 0.1521778678671253 0.0235807727134492 0.2110397184526481 0.0096943185528051 0.1509675057496498 )
( 0.2449537629662719 0.164082827912631 0.0164293667698822 0.2221250618592646 0.0082992791233284 0.1494387142957477 )
( 0.2496449789051716 0.1766052162265996 0.0098355537033513 0.2331597463891899 0.0067531434161097 0.1472590014365968 )
( 0.2559154999748327 0.1900729034333473 0.003850682626172 0.2437372283731596 0.0051096731242192 0.1449231154042508 )
( 0.2645487139598657 0.2047481111699663 -0.0014582731537313 0.2536344242085603 0.0034563887561026 0.1421170521839115 )
( 0.1534625432712705 0.0395389358851887 0.0886766663785407 0.188395548201056 0.018337583315535 0.1413414604876622 )
( 0.1459499783932898 0.042040612755649 0.0806246597159631 0.1824665831815669 0.0104237744287585 0.138909965706429 )
( 0.143515257549612 0.0467229610726613 0.073478720660449 0.1716870873813765 0.0032757182436832 0.1384178901979555 )
( 0.1460569356503233 0.0503103586776774 0.0680993857177519 0.1644689013536406 0.0004869871858039 0.138044121719372 )
( 0.1518057906394603 0.0543320030788134 0.0644711421551875 0.1595184763676657 0.000594688289776 0.1354941405232115 )
( 0.1593195358185282 0.0595248504384333 0.0618299835361774 0.1569535995849166 0.0021369069442408 0.1322819102314868 )
( 0.1670715518017243 0.0665591954503098 0.0586150138890169 0.1569035101315884 0.0050126096098117 0.1289608694341672 )
( 0.1765717366357385 0.0754961461748948 0.0550809961992692 0.1596994099224318 0.0079419100470444 0.1277142600201034 )
( 0.1866196861628211 0.0862836236426331 0.0508276284883694 0.1658737189104511 0.0104484912359742 0.1289185676962157 )
( 0.1958351369514019 0.0988386306483163 0.0449583720997631 0.1750111821723804 0.0122325847479365 0.1312715137375479 )
( 0.2057841716511226 0.1129441550015241 0.0382701797980462 0.1866672928936366 0.0126422408542972 0.1350865645980284 )
( 0.2151562864604519 0.1278325957362959 0.0307984476420198 0.2000069095057238 0.011811738569543 0.1390103497047401 )
( 0.2225179273703507 0.1428568419070348 0.0226458895104967 0.2146459705871687 0.0104805205957469 0.1409385172361385 )
( 0.2290120573119022 0.1576745850887448 0.0150926017951574 0.2293645515578829 0.0088319115096291 0.1417309547022264 )
( 0.2349779585309831 0.1721262057204119 0.0082873108643299 0.2435107610901514 0.0070307587204747 0.1411636278918793 )
( 0.2413261906618728 0.1871796966153808 0.002229277504403 0.2578894193345299 0.0053317847956358 0.1397353209191184 )
( 0.248992946784634 0.2035117514021106 -0.0029533461566761 0.2723052872663336 0.0037345443062698 0.1378389006648263 )
( 0.25943324098196 0.2210337107842094 -0.0073199377112159 0.2858184316201601 0.0021860104265238 0.1355249795212664 )
( 0.2739282871947134 0.2401525546213954 -0.0108882903634395 0.2978953195439856 0.0007662640297243 0.1329176345047323 )
( 0.1440203451324152 0.0376937936554244 0.0797852060482438 0.1956688963369505 0.0145678544933672 0.1418699292441031 )
( 0.1376280194091877 0.0416996691045333 0.0716783722431524 0.1878505417352222 0.0069611464580949 0.1389655454112606 )
( 0.1368076559886186 0.0474340259475385 0.0640566779855383 0.1771587018165237 0.0012551398177416 0.1367524183654837 )
( 0.1403344293872897 0.0523846455285602 0.058219104156776 0.1702799524669607 -8.787882978174882e-05 0.1335472536724272 )
( 0.1468989576828801 0.0580529728250353 0.0542436162943237 0.1661812009865348 0.0013536241670336 0.1284840494634546 )
( 0.154457369011798 0.0650163003366026 0.0505925523827901 0.1654566351125415 0.003899317131734 0.1231478746531275 )
( 0.1620408059236562 0.0728228715241002 0.0466213285636709 0.1679674681568326 0.0068982371166439 0.1189489605519561 )
( 0.1708534548543215 0.0825375363467493 0.042191045415346 0.1740658273302983 0.0094595682394937 0.117779024649416 )
( 0.180125677747636 0.0948415098977471 0.0369961353695089 0.1832067349904094 0.0113848540052407 0.1195616802456377 )
( 0.1893164364113017 0.1086753101056764 0.0312375601872178 0.1948794774370088 0.0124314361260883 0.1231030123901937 )
( 0.198614733977971 0.1242823253217063 0.0245371853617342 0.2098421758132981 0.011727156834254 0.1273975067761125 )
( 0.2077650779050676 0.1415230127983973 0.0170990868626291 0.2270120419907205 0.0100246810998018 0.1312613292362691 )
( 0.2157240872186487 0.1586188713507772 0.0097050419758115 0.2444029066929831 0.0083451800350445 0.1334206149796395 )
( 0.22351286504355 0.1760049864247865 0.00322098581384 0.2620032354699664 0.0064748712589097 0.1343065091944396 )
( 0.2319854453122548 0.1941178424970573 -0.0023485878392695 0.2804450740888942 0.0046101629520462 0.1336462185694552 )
( 0.2414676685917544 0.2133785011832704 -0.0071382703527844 0.2992865776121946 0.0028865607019015 0.1320646797307672 )
( 0.2536295383463275 0.2342158450350986 -0.0109915318665892 0.3177085553059615 0.0013940927195425 0.1301095175161096 )
( 0.2698359755433314 0.256429457788383 -0.0138465704984304 0.334345744427126 0.0002916965163059 0.1279215786855204 )
( 0.2918282001505449 0.2813218811909372 -0.015816915486107 0.349340901374961 -0.0004971037679724 0.1254889504078868 )
( 0.1341116431268281 0.0385218755665904 0.070466502507604 0.2004990849301168 0.0098393931481095 0.1430084119122836 )
( 0.1293202985875507 0.0433237616648326 0.0620772866339026 0.1920760806404336 0.0030503459045029 0.1395488471243839 )
( 0.1309880127546949 0.0497440859851844 0.0543846848154287 0.1822956960857426 -0.0008998971293162 0.1349955385956099 )
( 0.1352230962789854 0.0558792768585514 0.0481776709768216 0.1764887073483861 -0.0007188390730665 0.1289131022264933 )
( 0.1417316447364163 0.0624295634336627 0.0435875594908552 0.1743631834074635 0.0017580133433131 0.1212311944721954 )
( 0.1486911511583341 0.0702199553342683 0.0393804652687528 0.1752934052252057 0.0050198531210118 0.1143638391016813 )
( 0.1565677907644531 0.0789827149336549 0.035347439206599 0.1799531856683664 0.0080285519451956 0.1103512999855693 )
( 0.1650957764054322 0.0898234642299095 0.0306375282529295 0.1888168922723749 0.0102827165966994 0.1098832781962521 )
( 0.1733877833740386 0.1029104540537828 0.0255254114546403 0.2006860102855692 0.0116688589694202 0.1124963859521046 )
( 0.1820863933928512 0.1179769371263275 0.019920121740282 0.2161266349314439 0.0114367936973569 0.116627744346575 )
( 0.1910725931936397 0.1354580782820847 0.0132935963672624 0.2350474005577336 0.0099557865565224 0.1214151023457652 )
( 0.2005070329644559 0.1549652081346624 0.0063622615263319 0.2561972781927508 0.0080901084729193 0.1252337220979916 )
( 0.2102121092836671 0.1752467346207087 9.001425152741334e-05 0.2776838215035946 0.0060522657243145 0.1271275608276544 )
( 0.2207512990318868 0.1965086457916664 -0.0051926292675857 0.2995761687651344 0.0041381031447999 0.1280423348448228 )
( 0.2323632868659621 0.2190242727254588 -0.0097017284607242 0.3230782453719893 0.0024925933939607 0.1275214316716447 )
( 0.2456673687143125 0.2425216359800475 -0.013243179017213 0.3465821825828749 0.0010627440003698 0.1259846307380893 )
( 0.2627841758811333 0.267895217429187 -0.0157397477773413 0.3690074608052098 -4.89163276794243e-05 0.1238837417735509 )
( 0.2864261943155892 0.2964375599038718 -0.0172533157896729 0.3896984789924496 -0.0007520969723609 0.1217230896225836 )
( 0.3181524808468001 0.3288731111537932 -0.0181504011362708 0.4083744139467474 -0.001353030298846 0.1195961560522728 )
( 0.1245556421154483 0.0405512005322294 0.0609137512713655 0.2047076455211382 0.0044388237297899 0.1461580779255324 )
( 0.1210821375170821 0.0464414243492812 0.0518063335435531 0.1964641342081569 -0.001443393473507 0.1410912741735218 )
( 0.1248185454811678 0.0532142830704028 0.0441591262215456 0.1873385843609694 -0.0033740921347548 0.1330310932880491 )
( 0.1306289634340042 0.0600370747630922 0.0383657725561894 0.1829061226843388 -0.0015172110984998 0.12389758148804 )
( 0.1376160669005068 0.0668900347557635 0.0338602131875793 0.182365641753469 0.0019534512783449 0.1144845304758623 )
( 0.1440366679578962 0.0747925635661615 0.0295833657946037 0.1850493311920226 0.0057932541245985 0.1070278114821372 )
( 0.1511556483047734 0.0844848592389195 0.025333667497011 0.1917170358366215 0.0090014915617027 0.1034106573593007 )
( 0.1584564746636535 0.0963835158948781 0.0204965416152509 0.203780773751525 0.0107152913432635 0.1037263271727661 )
( 0.1657141531626921 0.1099760811513928 0.0155188649300194 0.2195990432088018 0.0113070093138281 0.1070160429204772 )
( 0.1742180825551116 0.1264526346579522 0.0101350215984221 0.2386375213488535 0.0104078009065141 0.1114379480147343 )
( 0.1840170588194692 0.1466174170181938 0.0039663404704901 0.2619981738421709 0.0083317012633329 0.1166513027155684 )
( 0.1947926006148858 0.1689463747009527 -0.0019204035570111 0.2876750897982076 0.0063550375056137 0.1207245368601125 )
( 0.2066573756736179 0.1932004741030211 -0.0071218866956071 0.3144920455857937 0.0042314152244239 0.1224523349965904 )
( 0.2202907675864106 0.2192102772155051 -0.0113329243131276 0.3427306954745321 0.0024328173156792 0.1230086817625343 )
( 0.2351221328278649 0.2455605849430352 -0.014521516608912 0.3711671521240409 0.0011304237107056 0.1222942174241024 )
( 0.2529795443103396 0.2735016634388914 -0.0168170857957629 0.3989850734882443 -7.013038530628994e-06 0.1207184132421451 )
( 0.2769293125039913 0.3055981824240176 -0.0183405237710257 0.4272105299104949 -0.0009575926425891 0.1187968061399841 )
( 0.3093376940439691 0.3423212950966002 -0.0190941676235834 0.4539014536308568 -0.0016499932931355 0.1168657636676271 )