/*--------------------------------*- C++ -*----------------------------------*\
| =========                 |                                                 |
| \\      /  F ield         | OpenFOAM: The Open Source CFD Toolbox           |
|  \\    /   O peration     | Version:  2112                                  |
|   \\  /    A nd           | Website:  www.openfoam.com                      |
|    \\/     M anipulation  |                                                 |
\*---------------------------------------------------------------------------*/
FoamFile
{
    version     2.0;
    format      ascii;
    arch        "LSB;label=32;scalar=64";
    class       volScalarField;
    location    "0.0076";
    object      k_LES;
}
// * * * * * * * * * * * * * * * * * * * * * * * * * * * * * * * * * * * * * // 
 
dimensions      [0 2 -2 0 0 0 0];
 
internalField   nonuniform List<scalar> 
13597
(
0.2132845730917167
0.2076247970809074
0.2001073383638184
0.1956799236886619
0.1966236878649507
0.2009480737535454
0.2065916848495533
0.2144850625888708
0.2243383622205263
0.2345134850134346
0.2463507798721101
0.2587055615467539
0.2703461595737255
0.2818480751927262
0.2928677676444536
0.3035478908175801
0.313249122683972
0.3206140007346914
0.3274368851906209
0.2042973857211629
0.2016544583271728
0.2005622290786637
0.20678773412173
0.2158366476760225
0.2264291524770432
0.2380045824217924
0.250879630134886
0.2640927144451405
0.276221194761357
0.2883627043985127
0.2998835121440737
0.3099172092371832
0.3193359792394424
0.3275908872642016
0.3345744871437208
0.3400331585206335
0.3446720279054459
0.3496233822638916
0.2025831090256827
0.2036906911467856
0.2100395556880092
0.2229918194111815
0.2348675108819872
0.2472371577685601
0.2587607463353461
0.2696949705557755
0.2802663758908579
0.2905323473282314
0.3003170386748853
0.31005417601879
0.3196333740539731
0.3283410934846321
0.3359277540952783
0.3425042101953389
0.3478619853708888
0.3525398973587632
0.3571718018907922
0.2053019938422186
0.2094057507629597
0.2185568798112842
0.2316827147215298
0.2422729531576236
0.2521810299037546
0.2617638227425401
0.2716403702835528
0.2818423230869561
0.2924502585972697
0.3031435174558023
0.3140326498141864
0.324202226784446
0.3340005767088551
0.3420077513476342
0.3476559920604336
0.3516964123992514
0.355225373016655
0.3582890313368344
0.2084077784558744
0.2124624303262718
0.2210729086817128
0.2330955627775388
0.2422588555661505
0.2515946321226496
0.2621864031510559
0.2741624545954311
0.2865519208366514
0.2994753666121028
0.3130318323703621
0.3253948156888956
0.3357228809842725
0.3441801418492725
0.3495566090943864
0.352844558074074
0.3546069681567993
0.3556038189301119
0.3559492194240204
0.209214784288987
0.2116399837782029
0.2194410461256619
0.2316463827192592
0.2421015357338839
0.2543651939294427
0.2685460321811497
0.2840194804386889
0.2997755475601715
0.3150304037531817
0.3283126752263149
0.3386733356757221
0.3461300563540546
0.3502422529351742
0.3522548056716854
0.353330074204472
0.3540861259840409
0.3545678023796391
0.3552372781049159
0.2077387720468588
0.2096977915506555
0.2186011094937084
0.23263862892556
0.2467935301568059
0.2636257246547072
0.2818429968439115
0.2993411650576038
0.3152508140856573
0.3286561918691257
0.338803045372573
0.3460372383916101
0.3507025764465795
0.3534587711714607
0.3555339666595993
0.3576561592665179
0.3602095062412675
0.3636600320703389
0.368116336756506
0.2055144910318156
0.2079770636887333
0.2198094192783501
0.237724843270858
0.2564081422424994
0.2766869109409736
0.2963220809909747
0.3134174218722855
0.3274617877872531
0.3376172834630433
0.345186538703846
0.3514378962573791
0.3564278214846837
0.3610591191692034
0.3657555460239419
0.3714730777064725
0.378191544848681
0.3863035363356409
0.3953913911541685
0.2030223540973684
0.2074678533581925
0.2236098678947426
0.2455849022016404
0.2678008291788897
0.2891516996737109
0.3075961203067209
0.3233408356408576
0.3356390389928491
0.3443515168016017
0.3516875468104004
0.3593043728237026
0.3671054368276221
0.3757581888966422
0.384761708118896
0.3952012333999767
0.4067355730202744
0.4195456788045633
0.4334331537429164
0.2026175135723854
0.2101698640906011
0.2302624052625471
0.2549203016077215
0.2786521155184116
0.2992760349254255
0.3161378995002791
0.3307323538110872
0.342021899494364
0.3512169905013462
0.3607250977105234
0.3714203792852239
0.3833258555376597
0.396545508462818
0.4107251060022736
0.4263312979081702
0.4429986535806279
0.4606303078008165
0.4792479032788123
0.2041300041913757
0.2140656672756817
0.2378407260309409
0.263265254186677
0.2866621588978975
0.3064430292054782
0.3226304148431416
0.3368181613189184
0.3485192975682218
0.3598062582046911
0.3725474561439187
0.3877492265340558
0.4042463841164136
0.4220975154066334
0.4419607165540615
0.4631506787491283
0.4854671569880462
0.5082437243750519
0.5323969429307973
0.2056316960497537
0.2176979326071486
0.2446530319422028
0.2700220858165573
0.292824007623379
0.3121260067931229
0.3281521559359129
0.3426249362616264
0.355715807410678
0.3699827225206207
0.3868423061372757
0.4072008843262378
0.4292402302788842
0.4527044915035919
0.4785116514155206
0.5051423027249323
0.5326751703286444
0.5619682014640278
0.5934175878561485
0.2068671420899508
0.2214938752681625
0.2496722543263437
0.2752367652341591
0.2979878751270514
0.3171302151554947
0.3332468306469583
0.3485515361764668
0.3642883008702394
0.3818041140633326
0.4039055515236487
0.4297430929365426
0.4577076975708814
0.4879820514032248
0.5191384701829396
0.5511270605338594
0.5860639589407204
0.6238675496868477
0.6620832429339468
0.208303176061476
0.2242809358776027
0.2532942678483183
0.2788132264880423
0.3015584331451971
0.3210065341570156
0.3379636400841779
0.3543865296816791
0.3732390314697862
0.3956137193163099
0.4228903666925814
0.4548957287208922
0.4892067393916346
0.5252858366242268
0.5627251174882657
0.6029096986963216
0.6471744103873639
0.6929116165655408
0.7405329075635867
0.2088968518439609
0.2259914427663891
0.2572635560881571
0.2821084304472199
0.3045500512922694
0.3241082208836814
0.3421435897364172
0.3614168067351311
0.3837176901826141
0.410908859633855
0.4440665292259055
0.482619333023666
0.5241284666732938
0.5661707093151703
0.6111302731103438
0.6608143878357159
0.7140119322178076
0.7703785466001459
0.841391656825116
0.2085530690635651
0.2264647582725997
0.259048348735407
0.2840677021798573
0.3062724889748143
0.3263684491586844
0.3465003611387929
0.3689552684918775
0.3955571065433105
0.4277306528103438
0.4677584379981434
0.5137548191719848
0.5616490743729012
0.6105044981918798
0.6637124604677441
0.722059706354663
0.7864102992929975
0.8660125450315848
0.9780840214984804
0.2076347683968382
0.2263886445229116
0.2600306814737522
0.2851755117942279
0.3076654653267674
0.329511813211313
0.3519747027387747
0.3767262728808097
0.4077020731177374
0.4457777841696582
0.4907232224836964
0.5438693379552827
0.5995192597632575
0.6565080920340298
0.7188606304105131
0.7884330079778269
0.8722643775207791
0.9896700537529444
1.1376939008750468
0.2061182995495626
0.2261463888577507
0.2607823927840706
0.2859792973639231
0.3091778878316297
0.3328294734114802
0.356879329652934
0.384888914562843
0.4207855706193057
0.4638706061701911
0.5151001555844552
0.5756474009128869
0.6390819756438155
0.7052933539517535
0.7778101584200285
0.8617150378241254
0.9773709595853208
1.1365213181844092
1.2743086823860177
0.2045871660342796
0.225682078971753
0.2609038820546019
0.2867005631869147
0.3107238487678064
0.3359485487799717
0.3616204942328412
0.3930139457405153
0.4337375200842817
0.4827281729243434
0.5426460684200233
0.6094590137570428
0.6806272827734541
0.7571669583585714
0.8406289801435912
0.9481140997188056
1.1049713743889376
1.296391297136538
1.3752765556946258
0.2028808855772403
0.224704726826811
0.260691736839988
0.2873205141078036
0.312412924458461
0.3393003597835092
0.3675832203330172
0.4016836486064907
0.4462653065224972
0.501881188091374
0.5703555297695104
0.6446591416878568
0.723750588744486
0.8090456908330492
0.9121181452316016
1.050878276844128
1.249189934429254
1.4496902653927892
1.4396156965393645
0.2001956846516751
0.2231428423228693
0.2594777497385224
0.2868354547985299
0.3133507014395175
0.3421307246240618
0.3733918454341492
0.4099488721593334
0.4594644421420025
0.5215290330928083
0.5976519937647625
0.6822202430555739
0.7682098674136743
0.8612292849393786
0.9877699651594628
1.1679308931277426
1.4032973311159127
1.583386884817481
1.433328701212388
0.198032870214528
0.221959242440197
0.2589228905934704
0.2865629754491504
0.3145238094197623
0.3457219088657517
0.3795213110288952
0.4187354339672993
0.4741662010252665
0.542658265820666
0.6239790005677497
0.7147540829142768
0.8085978021756132
0.9187285671853196
1.069496586693546
1.2943367177940377
1.5537381589233137
1.687308363876828
1.332617108561118
0.1969033439880088
0.2217781640559908
0.2586939067241514
0.2866624646598306
0.3160145257933801
0.3487362437263097
0.385066445991385
0.4286890168696372
0.4897307125772386
0.5653700995589489
0.6519552332897248
0.7464371769369001
0.8487397472992202
0.9782738695253412
1.165906072450698
1.4309487119271096
1.6957622334046265
1.7174371830468178
1.219807160040031
0.1958776435755151
0.2216786804593487
0.2588411654948846
0.2868982463042899
0.3172766099225195
0.3511694610627878
0.3894580934330592
0.4376253052456749
0.5031439277416546
0.5837008290221103
0.6769772746412611
0.7810820308053185
0.8948242790641996
1.043322091951438
1.2685831882603074
1.5673433391324878
1.824144149143106
1.6974595341015637
1.1180961151470576
0.1952590151113928
0.2209039616903789
0.2587983893535053
0.2874296750605844
0.3185230322956296
0.3540170847253381
0.3943293185048985
0.4459223331504279
0.5143877613733064
0.599248376387715
0.7006465715333466
0.8148600830873741
0.941190980659044
1.119723680695612
1.3754715401429949
1.6929068397760776
1.9166623031358685
1.6651274106796694
1.0046855238217356
0.195168741534205
0.2203820791132135
0.2583873520745565
0.2877652714603022
0.3197253950919815
0.356177799481608
0.3994887034512769
0.454453718144553
0.5258742255166702
0.617573890420407
0.7254295496645625
0.8464385714383221
0.9871835140919344
1.193356214466034
1.478017719877443
1.8101786071429669
1.9468330757077743
1.587003275009688
0.9197560598197674
0.1952468300693094
0.2200592879155142
0.2580327360867587
0.2879124915103343
0.3205620248390177
0.3581699153531157
0.4047114142069768
0.4634087534061565
0.5386229455210768
0.6361409348825725
0.7486262801243085
0.8751953278495989
1.0315813842685289
1.2585103947950709
1.5750688370773036
1.9125623939773329
1.9567950477798943
1.4978797614179942
0.8482749940888649
0.1953680268831452
0.2198888285381612
0.2578809186163897
0.2886186649827622
0.3214559084085098
0.3604825801146203
0.409199775827724
0.4706606144789147
0.5502709682719927
0.6544028522126246
0.772721500021301
0.9028005167193373
1.0732807026127085
1.3238400100201002
1.6788047471038046
2.011351032048152
1.9889855646924397
1.4387540632117186
0.7874326189803216
0.1956288501843906
0.2197491557257321
0.257145958693011
0.2889668167383033
0.322016642469642
0.3622006970951655
0.4125951340774812
0.4763050824635438
0.5606875825350383
0.6703758392727198
0.7933644988519744
0.933005007721062
1.126368056978028
1.393722226013509
1.770172748177755
2.085514399336693
1.991636853969185
1.384613620818027
0.7498027107038714
0.1961804119541673
0.2195011644348139
0.2567825245184834
0.2891979572373397
0.3227765680610289
0.3645316361523349
0.4159600136557926
0.4821242313782204
0.5714659410405123
0.6827785363840458
0.8086129947232871
0.9632434399188612
1.1737038415166212
1.4597282272355807
1.8476692880158163
2.0831893563988237
1.919567288021328
1.33223825412362
0.7287975947004526
0.1969167462593027
0.2194675267505307
0.2566343592890983
0.2893464857848076
0.3241561669914392
0.367533251205583
0.4198290547163152
0.4892757136808202
0.5823717904520279
0.6952968710520163
0.8255869943315243
0.9918277222585916
1.2078607475291998
1.5177761059239718
1.9182885216591272
2.0716089719806368
1.845731732796629
1.2862293207035345
0.7143081328628966
0.1979305981098343
0.2196078209026571
0.2564579365195418
0.289591551265133
0.3254093594737937
0.369513899431497
0.4238923452385
0.4972137840926599
0.5929392458792135
0.7084396928495041
0.8433003979367346
1.0171089400044149
1.2431918420131298
1.5863186644991925
1.9840571755486367
2.095517376395596
1.827640311285512
1.246673757296018
0.6949763858126597
0.1989655954360015
0.2198097728370302
0.256763570760965
0.2903245980727483
0.326283948042833
0.3704064792978385
0.4266832282996849
0.5032628925688568
0.601939906516379
0.72150029353488
0.8610051156330814
1.0411439238659774
1.27519574919072
1.6431318133661676
2.0454824815067982
2.129880091581772
1.828997070244308
1.218897708322306
0.6720924876459448
0.2000226515189936
0.2204555022269374
0.2571759359768951
0.2906077209767602
0.3269418325565894
0.3716163141607982
0.428419469500001
0.5072521691196116
0.6089831494592787
0.7344241109885077
0.8807097630728438
1.064896873273876
1.3039884667580504
1.6848984022309097
2.1000830229999234
2.1667485728344698
1.8349845152293485
1.2027893033948134
0.6595618455245487
0.2015208749405861
0.2218503228364331
0.2578102276454068
0.2902797788679347
0.3273324988495112
0.3730149065940716
0.4302179325435271
0.5105012890644185
0.6151137120529301
0.744794276921944
0.8961547482730146
1.0842188903090932
1.333311298603266
1.72636512769254
2.13900682626566
2.1860154503409586
1.8331283219844647
1.190344325814274
0.6533328573389294
0.2029799400012848
0.2227722214416005
0.2579783314763555
0.2901230325258376
0.3277630787273455
0.3743219718813222
0.4318197625781126
0.513450580253826
0.6213996940722927
0.7524076323964101
0.907181138692836
1.1011124245586874
1.3600867305601072
1.7563093784307524
2.1676544753801337
2.2034552242542174
1.8261841472347893
1.1752591469507707
0.64414613467502
0.2043159662821012
0.2236253754462634
0.2581952826532538
0.2900852390242607
0.3286029724636405
0.3764004805744433
0.4346742915667634
0.517026296309154
0.6274533456556087
0.759962044412854
0.9177391498835858
1.117910673479228
1.3838373175770158
1.7838549190662054
2.1924970891071887
2.2124338563222627
1.8277145108125536
1.1722425156465404
0.635542817600793
0.2058773770559315
0.2247106454498044
0.2582198251691166
0.2897036761820241
0.3285675224040653
0.3771758353568996
0.4376238164269489
0.520815195883522
0.6333941536088509
0.766875761098456
0.927544467036194
1.1331149275320584
1.410540302489398
1.8133725124069349
2.2032391711786308
2.21233726521643
1.8209933453777367
1.1700648773534137
0.6318642754913842
0.2075257744791919
0.2255015811680215
0.2579179374151427
0.2895415615640698
0.3285470608817871
0.3768903231876374
0.4384321266196089
0.5228190092424478
0.6383184670779444
0.772461965843223
0.9352403792745176
1.1450967924473918
1.4374275340597191
1.8473112379980268
2.2088603762163928
2.204866564386539
1.802756016599691
1.1587244686750229
0.631823284759443
0.2091947018744631
0.2260994937187773
0.2578914581793689
0.2897112995079804
0.3288521276928128
0.3771541495823376
0.4386936949742661
0.5233957454541004
0.6405171038909574
0.7755195681286132
0.9398025178371752
1.1534210262337607
1.4534925535043404
1.873557365983759
2.2173066410695106
2.192240145277144
1.7919037287602326
1.1533284765194691
0.6327748415032005
0.2105511389450667
0.226441204325045
0.2580142509011467
0.2898655752395563
0.3287797393659809
0.3774872150218978
0.4392653773648072
0.5245144993356794
0.6433989727372424
0.7806295091092107
0.9449410363272998
1.162735400234676
1.4667550194786958
1.8871061485101128
2.2166822918602347
2.174686024258562
1.778320669553615
1.1470198682549233
0.6336783938222662
0.2117966766033188
0.22686646248578
0.2582249891873917
0.2901543926743029
0.328718414607059
0.3777061163322726
0.4402323261349986
0.5263538852499278
0.647300534831092
0.7888672382924546
0.9529395191498816
1.1718852035153011
1.4778145431673029
1.8922712012051548
2.215330371455983
2.1669246866611527
1.7639501647095543
1.135606221761115
0.632006004620439
0.2132673967864787
0.2276400390539578
0.258396388429199
0.2902362373459409
0.3290718409287358
0.3782920861882232
0.4414471171729427
0.5272502734964767
0.6478386170119209
0.7932253818808555
0.9593979526024472
1.176361171268807
1.479376414475213
1.899529161798566
2.2270741847168227
2.1669295547594967
1.7521036406334405
1.1250565117331897
0.6259874402429194
0.2146320673026759
0.2283549383753283
0.2583065669913627
0.2897797365367491
0.3294700925684386
0.3788722261309809
0.4416650707356332
0.5273294488218039
0.6494498465581581
0.7981707494290681
0.9652334890391492
1.182843130224951
1.4841975532809493
1.9075413446743257
2.222841550643429
2.150118449397477
1.7400725238439156
1.118283122776625
0.622869635990439
0.2476334004103839
0.2438946886439405
0.2378829542988658
0.2325689811396506
0.2299464554530811
0.2286967403888652
0.2272332558060953
0.2256659950854962
0.2248136941880862
0.2243403749150151
0.2236635111861714
0.22335840031779
0.222614506659648
0.2213534751299807
0.2208639921183085
0.2205046722381311
0.2206817737488627
0.2215445770159424
0.2224869822988704
0.2622679169033253
0.2605384644883754
0.2554053295659013
0.2519653620092856
0.2510338746465648
0.2508407656200743
0.2504456701899569
0.2497512095705283
0.2486216325343148
0.247233374276199
0.2458748500127979
0.2453090346401878
0.2455941279776912
0.2452930244163902
0.2457789503308744
0.247335210916123
0.2497357750818014
0.2533625600441111
0.2570476288637458
0.2691620908627126
0.2680017128396951
0.2632024954042628
0.2606778761262761
0.2596381606939469
0.2585006086065895
0.256643462204858
0.254072762044191
0.251852421472427
0.2498980600008714
0.2479489279043549
0.2471256221599507
0.2482458433827024
0.2498411060966974
0.2520756019753156
0.2552244196683059
0.2580147682055396
0.2610075347138498
0.2642879206382208
0.27133273042258
0.2690166591833902
0.2634524908504638
0.2599612650332047
0.2569587403029298
0.2540172605361139
0.250967842496351
0.2479545950601217
0.2456351192449134
0.2442644467265745
0.2439277154747878
0.244764876130537
0.2473586240793178
0.2504384386970717
0.2537133741310177
0.2572364971247915
0.2605168512425406
0.2640879906731612
0.2686191161122562
0.2685543211234429
0.2643211646287242
0.2592309497089537
0.2557219591144265
0.2519005290084095
0.2488200247956346
0.2467727350913755
0.2451225188400861
0.2444328070875707
0.2448303709546959
0.2463685955326071
0.2491082092564732
0.2528377145201594
0.2570193072451511
0.2617683678684779
0.2671610619171549
0.2729208492429871
0.2791278945060285
0.2866468576637588
0.2634460254530071
0.2590174487319234
0.2550969752415526
0.2528713538807133
0.2506690858254608
0.2498973425594316
0.2493567937993924
0.2491151107597159
0.2496107690414403
0.2503769038268731
0.2528819069108088
0.2572865070983975
0.2631974263487556
0.2700737073549532
0.2778336858892942
0.2864498010994026
0.2951739016805744
0.3044842868185219
0.3153477081141202
0.2605614880546194
0.257307349782149
0.254444354235066
0.2543547743878604
0.2545793108100063
0.2551319671984154
0.2553148216859062
0.2552139439150644
0.2556288711967189
0.257442840280314
0.2617614319944237
0.2685301992159057
0.2778852800179214
0.2891610106002493
0.3008973014987408
0.3128638313801979
0.3251080633523366
0.3382359664032884
0.3524896813541956
0.2608997351432571
0.2593063813524226
0.2589469813078021
0.2605107797919802
0.2611325468741344
0.2607632551641985
0.2605075406585142
0.2599473666445008
0.2611819703581753
0.2655415262740126
0.2729758631074595
0.2841393864888732
0.2979378702313496
0.3138893910149515
0.3298394555220632
0.3454764874427586
0.3615944012392788
0.3787729815228677
0.3967699743476176
0.2656145528861409
0.2659063739640573
0.2664711593403691
0.268046152894284
0.2678164761816645
0.265932055692912
0.264570670719829
0.2651740607601076
0.2684052897643282
0.2754062512854665
0.2874627959675064
0.3040311777701154
0.3227125027718643
0.3428990228520251
0.3630709940077171
0.3828552554116355
0.4035015333397293
0.4250254895232468
0.4469669971829318
0.272229669518334
0.2741291252247812
0.274533016909465
0.2742024442959743
0.2723529585630115
0.269705962946316
0.2682391926919429
0.2702814053369914
0.2759931632403369
0.2876433681386908
0.3051020068260268
0.3268245581273421
0.3510877790918854
0.3759478765123163
0.4005475957559024
0.4248107517377091
0.4507864700925853
0.4773488381101454
0.5034322553921791
0.279756215015377
0.2822215847120029
0.280943369689021
0.2784820148531581
0.2747113902916264
0.2716524327377017
0.2712283168573429
0.2752634153038515
0.2852127180646824
0.3019542074822894
0.3249536379282153
0.3528172312158685
0.3829369117605249
0.4129646737823371
0.4427007634459208
0.4724517153602368
0.5031421975566597
0.5342804156576567
0.5647270109397383
0.2887099454419972
0.2895924067897355
0.2852894286629251
0.2802146451431778
0.2751177050381946
0.2726419395965661
0.2739839560207619
0.2817546735257454
0.2972993524346807
0.3192042771094631
0.3486923659513085
0.3827642472833554
0.4173791077659672
0.4527433936714965
0.4885145557549683
0.5239781970325623
0.5594410887907891
0.5952003004727985
0.631293553805096
0.2961757469590834
0.2939281653867839
0.2873263998469885
0.2801413909135977
0.2747865619294944
0.2738719742486517
0.2780192065250078
0.2897659045057132
0.3106718323870089
0.339057523693057
0.3747945496412992
0.4153249506514218
0.4549134013693376
0.4946908991953668
0.5362927999534908
0.5777757875351807
0.6195079637650586
0.6624114772254591
0.707082322819551
0.301066776240119
0.2955903795943781
0.2872031170988964
0.2792003038719008
0.2745782527606001
0.2757205688810247
0.2832789545549511
0.2996076273208553
0.3259962072755492
0.3606682803823076
0.4024996456077435
0.4486091748630272
0.4944160067680846
0.5387603668478684
0.5859377145598698
0.6358502132263251
0.6849959161466653
0.7363578470647596
0.790737707176537
0.3047017110621924
0.295965143553055
0.285498561756996
0.2779383720119354
0.2747726442026224
0.2780953339401251
0.2895738864724348
0.3108617167852683
0.3429413653885811
0.3838682014663323
0.4313265137462647
0.4813593927195621
0.5333410872020772
0.5859395742375879
0.6393956662538854
0.6971139494473816
0.7562048318709923
0.8182439012269901
0.889324094606528
0.3061241597265071
0.2946278212437583
0.2829777234629935
0.2761973378340053
0.2749887228852644
0.2810583758613312
0.2971023918232843
0.3230345079981777
0.3595929051245227
0.4070842471903219
0.459283391547164
0.5153403029262451
0.5743573176994126
0.6355165605591487
0.6964822272008019
0.7602092301074852
0.8314283639125266
0.9122875382882798
1.0112873327345364
0.3045603320457818
0.2908904536650892
0.2798829008716361
0.2747539850251073
0.2758357327620346
0.285009512042437
0.305162755454656
0.3361773546514337
0.3780929164950116
0.4300514885667555
0.4874141184111479
0.5509342180714009
0.6162346879543276
0.6839491698790714
0.7544829883298876
0.8289650571406539
0.91471579700933
1.0223649840228832
1.1512631758782508
0.3011554942709793
0.2861741507924032
0.276367638684891
0.2732868942669738
0.2767367806434593
0.2896967337622873
0.3140868970944581
0.3502305206661679
0.3982883607611193
0.4533014830110018
0.5165628341150625
0.5875170714146344
0.6597923323521582
0.735554731009994
0.8152254308710083
0.9044876959633412
1.0123180297970429
1.1572238899506555
1.3013170377293417
0.2963239939198824
0.2816247763829976
0.2731875258955878
0.2715064095141762
0.2777923560816667
0.2945773545993924
0.3232504393928789
0.364101293414651
0.4163151263414423
0.4758360823575556
0.5454900594770574
0.6226157852664642
0.7042065202591162
0.7887575908731949
0.8779045677674092
0.9873280019693114
1.1270842175753215
1.305178721319761
1.4267650973389086
0.2908148801373918
0.2770819555543777
0.2702714732108773
0.2706117097618963
0.2800431250867572
0.2997446478625019
0.3314025701627809
0.3766360111377559
0.4332806444713629
0.4983897105078843
0.5757656807495168
0.6599500947084871
0.7494151098914456
0.8437003940442689
0.9456293400488248
1.0774495844270866
1.2583300211479933
1.4513708037857875
1.5151276406160987
0.2858694236714562
0.2730904593067442
0.2677995597060497
0.270446211498657
0.2824127254410436
0.3046510450305378
0.3404044031637596
0.3893070305769041
0.4491290776485655
0.5194707560874797
0.604236764065125
0.6984791129219475
0.7954943422562245
0.901068828953625
1.0220736810736948
1.1817833124302357
1.398020636400369
1.593839179411751
1.5440256018316545
0.2813381318071016
0.268985938172146
0.2653805512843352
0.2704864532140291
0.2846893456558926
0.3093252164479292
0.3496643433948096
0.4023141703890454
0.4653275360669827
0.5405159139570561
0.63133231294437
0.7338884023667147
0.8398017316524757
0.9569908637802867
1.096939231929171
1.2971561422258022
1.5550888934889775
1.7387930103750713
1.45992995412073
0.2770676492587173
0.2651026065488113
0.2631485844594252
0.2704997824920794
0.2874698331645067
0.3152579102890675
0.358662480409049
0.4143722328259199
0.4827561650195592
0.5642599124982864
0.6613950777193938
0.7719911190974886
0.888296516640499
1.0173237555070678
1.18503252624446
1.4293049408958305
1.7102835060018104
1.7816340071250214
1.3359874813105617
0.2727096156262167
0.2615449715266436
0.2615061953980632
0.270680376339977
0.2908450400938426
0.3219581034505858
0.36700667691598
0.4245548853583731
0.4974125119267613
0.58682308500258
0.6903845902254339
0.8087848863764264
0.9362184584401496
1.0804295634510384
1.282747805672489
1.56834930230252
1.8386607801601744
1.7483634270744397
1.2330636836236692
0.2681948012339566
0.257777082694675
0.2604228505293996
0.27174826744042
0.294213279440569
0.3273544234779531
0.3737191897163156
0.4341982639183426
0.5107907218732625
0.6072480571040099
0.7194578572660013
0.8451115265538404
0.9823342741355116
1.1507471947419383
1.3848821606263355
1.6906486461834986
1.927701614451732
1.728764021930216
1.1246207927424117
0.263874412760285
0.2544955266266197
0.2596507437494625
0.2730976415764422
0.2970994391566043
0.3322439288451796
0.3809761811632322
0.4445046506592419
0.5255590855976279
0.6273890680750234
0.7463676081134528
0.8798876927685991
1.0244755255316709
1.2161598919494157
1.4844238638091014
1.7984818593740115
1.9381851994208372
1.635318664040755
1.0189708483421425
0.2596206604599879
0.2514250467620472
0.2584910030930978
0.2739858943383889
0.2995398686199162
0.3369985124413943
0.388710336394957
0.4543188585191225
0.5391875594820618
0.6445783294767947
0.7706861662127348
0.9139697502657662
1.0680292369882305
1.275391135898482
1.5741946107071478
1.8985028335745244
1.9511353432716227
1.5458476225128246
0.9290296578550998
0.2555143947197806
0.248680722091665
0.2576352260923882
0.275085679598215
0.3023840897220448
0.3415581214575463
0.3949524636892472
0.4622111328288375
0.5503011807331688
0.6606348154136388
0.794916713485877
0.94515421351401
1.1141683017370323
1.3429575674432952
1.6733458209667569
2.005245155127916
1.9978891939165733
1.5040123553847282
0.8687081245218354
0.2515213606113686
0.2465309555522965
0.2576337451721436
0.2761906073878362
0.3049535074768196
0.3455899725328338
0.4001710216527638
0.4702506040932985
0.561667532963216
0.6781383237861908
0.8159939525281176
0.9715369535035148
1.1588427403098354
1.407219971019667
1.7564153459324212
2.064187813138938
1.996940373756248
1.4568802075700025
0.8270937117876357
0.2475238184393966
0.2444325381894899
0.2575647591259156
0.277095532142216
0.3067520724058741
0.3490219848241061
0.405489487124735
0.4792474687725255
0.5720325475469457
0.6918150468783381
0.8361470058730325
1.0020349651046865
1.2055593520933745
1.4630823585036803
1.8236946504370577
2.0676096625855718
1.9219658452596475
1.3816443544427863
0.785849158083631
0.2436625207859749
0.2424239840783776
0.2572504320598488
0.2780629665789286
0.3088332514969348
0.3523400959694127
0.4100451719257895
0.487529997370668
0.5820480003111337
0.703761778124262
0.8543381522357869
1.0273731119347809
1.236698745162255
1.5136454346395327
1.897825366593316
2.0732197014482066
1.8469347593397305
1.3071564652448966
0.7482140446878982
0.2404518720506298
0.2405720719070359
0.2569881087666809
0.2792486042242919
0.3112137742954034
0.355566755282351
0.41443262569678
0.494478638301208
0.5932852061778319
0.719353388115881
0.872131944689651
1.0485414260786
1.2631253042542523
1.5681198107527008
1.9694914293457573
2.1029444563306328
1.8284067706567184
1.260623478076462
0.7156130182589409
0.2377135691398036
0.2391343093668711
0.2570419168978041
0.2802426632222853
0.3137525493917888
0.3588235377433179
0.4186395413511473
0.4993650664452733
0.6014908265384703
0.7332631086281698
0.8903192117252865
1.0718569232830817
1.2966725184431012
1.6250614776304086
2.030119581953172
2.144955217120669
1.831047329381143
1.228403587300196
0.698763633218106
0.2350723979370864
0.237855162848112
0.2570128319949807
0.2810547124258725
0.3160944172355669
0.3618892212170113
0.4226206657597183
0.5037572878075464
0.6082085539789048
0.7419154017656857
0.90054696619123
1.0902435211875428
1.3239195145688152
1.6719980397271643
2.072316392657031
2.167738175931514
1.835122854476902
1.2043619828326322
0.6816447507564605
0.2328496799446346
0.2366675384343564
0.2571609750019514
0.2823351639828839
0.3182227599701284
0.3652118494594705
0.4261127394489499
0.5078296837381003
0.6170225631550387
0.7520235721831268
0.9109141578187328
1.107394459399271
1.3433891311590684
1.7042370578879278
2.104923891853654
2.188385803738423
1.838005231427948
1.183282651267396
0.662566461937728
0.2307045425559187
0.2355512714912035
0.2575053567002056
0.2837568097917829
0.3200817126331078
0.3680204382092776
0.4290990887757875
0.51221808238581
0.6248344765358774
0.7614056273645098
0.924131412100378
1.1220018948025277
1.3581894503093856
1.7348704978364666
2.1462476745353576
2.2113093761306315
1.8272051118447408
1.1673986634387783
0.6547696394802257
0.2283480542511844
0.234275259231186
0.257749686666602
0.2847565597801813
0.321008897710173
0.3699628246060665
0.4317566192074271
0.5163164580773438
0.6307748193826578
0.7674192418367323
0.9309579469086356
1.1333306919710242
1.3795266719529329
1.7668779409641435
2.178379240802414
2.225105969131102
1.819044688897462
1.1603471893081865
0.6532132971871015
0.2261835168869441
0.233424132671605
0.258040587376235
0.2855764632800832
0.321925728764371
0.371762364946449