/*--------------------------------*- C++ -*----------------------------------*\
| =========                 |                                                 |
| \\      /  F ield         | OpenFOAM: The Open Source CFD Toolbox           |
|  \\    /   O peration     | Version:  2112                                  |
|   \\  /    A nd           | Website:  www.openfoam.com                      |
|    \\/     M anipulation  |                                                 |
\*---------------------------------------------------------------------------*/
FoamFile
{
    version     2.0;
    format      ascii;
    arch        "LSB;label=32;scalar=64";
    class       volSymmTensorField;
    location    "0.0076";
    object      tauij_LES;
}
// * * * * * * * * * * * * * * * * * * * * * * * * * * * * * * * * * * * * * // 
 
dimensions      [0 2 -2 0 0 0 0];
 
internalField   nonuniform List<symmTensor> 
13597
(
( 0.2048359878150228 0.0662397944923866 0.031366469458546 0.0912952227589711 0.0061534282658283 0.1304379356094392 )
( 0.2081389779294556 0.0673122026995677 0.0266690528016199 0.0907493161954819 0.0048484189801797 0.1163613000368771 )
( 0.2158658302915628 0.0688038806882608 0.0175157463912927 0.0908610883457136 0.0026970830388125 0.0934877580903605 )
( 0.2268306634222983 0.0711198608545132 0.0070296290852465 0.0919919650500528 0.0002535538929318 0.0725372189049728 )
( 0.2368119229404907 0.0737809217090005 -0.0004952381688244 0.0937255998105591 -0.0010809300646219 0.0627098529788516 )
( 0.2454846563918571 0.0761786465988805 -0.0052593148586209 0.0958036889949461 -0.0016549523857665 0.0606078021202876 )
( 0.2531241425388784 0.0782315146337529 -0.0090928745469486 0.0980893408805504 -0.0015384326956457 0.0619698862796778 )
( 0.2614755337447614 0.0803098000350188 -0.0122322312184003 0.1002349300243035 -0.0011563888861061 0.0672596614086766 )
( 0.2697119743196075 0.08237347004157 -0.0143723168680581 0.1035099801400033 -0.0007891278949016 0.0754547699814417 )
( 0.2767694767218575 0.0842059861562966 -0.0155436205573516 0.1068945794851521 -0.0003501594969277 0.0853629138198596 )
( 0.2845350889043769 0.0861696423267292 -0.0159452497362642 0.1099724028737379 3.239712431753219e-05 0.0981940679661054 )
( 0.292241325143386 0.0881101701970805 -0.0156551795509479 0.1134720356745799 0.0001421000991829 0.1116977622755416 )
( 0.3001027061750752 0.0895480326889284 -0.0141900280716801 0.1165106322398637 -2.346933378948828e-05 0.1240789807325118 )
( 0.3073332458793941 0.0913025485862819 -0.0124207176762564 0.1199241184928785 -0.0004542888449645 0.1364387860131799 )
( 0.3135462567238953 0.0931363700582539 -0.0109394454899716 0.1237338668595308 -0.0007916908505743 0.1484554117054809 )
( 0.3206241760362204 0.0945909943715024 -0.0089716149911835 0.1273920413844829 -0.0011610106507812 0.1590795642144566 )
( 0.3281301885241376 0.0957839258510357 -0.0060400621039655 0.1301036960164195 -0.0018079204777611 0.1682643608273867 )
( 0.3358300820858365 0.0972418811541808 -0.0031832021713936 0.131570315222746 -0.0021125938682075 0.1738276041608001 )
( 0.3435615159606547 0.0995951560410296 -0.0015818098792642 0.1335801636609705 -0.0026051273834885 0.1777320907596167 )
( 0.2114003343105882 0.0756456820104505 0.028570747593991 0.0846226099573746 0.0048733212015385 0.1125718271743629 )
( 0.2171646413604078 0.0782767137635506 0.0235005689056117 0.0848160891698751 0.0035472110138924 0.1013281861240627 )
( 0.228437353609937 0.0823138889364728 0.0138752011182581 0.0859929615077914 0.0005379747240478 0.086694143039599 )
( 0.2423991330029272 0.0879907321850209 0.0040719230226143 0.0893869565834791 -0.0027651361053482 0.0817893786570536 )
( 0.2529629626541607 0.0924288609049081 -0.0022427263040454 0.0924576354852915 -0.0039407941639732 0.0862526972125929 )
( 0.261559865929505 0.096563825011441 -0.007035265312383 0.0961044985510986 -0.0041886309800666 0.0951939404734826 )
( 0.2691186639296489 0.1005655161085551 -0.0109765909030671 0.1005744294917722 -0.0037251077879999 0.1063160714221637 )
( 0.2762756796878651 0.1043768070599597 -0.0141395544129635 0.1053789507391472 -0.0027365916369651 0.1201046298427598 )
( 0.282925385496397 0.1079350479476373 -0.0167065113695742 0.111240623948885 -0.0013522671044017 0.1340194194449989 )
( 0.2891644384590277 0.1116584631333583 -0.0177992194961633 0.117164474275665 0.0004881744633586 0.1461134767880212 )
( 0.2954107713738799 0.1156892732894956 -0.0184160998118844 0.1235766329309103 0.0027970190534931 0.1577380044922352 )
( 0.300263984317381 0.1195905064893344 -0.0191838967743018 0.1313399823117047 0.0056357368766325 0.1681630576590616 )
( 0.3057509062703017 0.1239855188805224 -0.0185523077615441 0.1391436463420209 0.0084321756406157 0.1749398658620435 )
( 0.312403541905252 0.1288574009679714 -0.0176128750785459 0.1467283750917251 0.0108734318037826 0.1795400414819074 )
( 0.3177872527019032 0.1334309698195005 -0.0173450615263365 0.1541815767664533 0.0130424508175047 0.1832129450600463 )
( 0.3229286410036346 0.1380871144937072 -0.0169835628443115 0.1613893322986768 0.0150030934460561 0.1848310009851299 )
( 0.3278535754119732 0.1423169914615628 -0.0161408592371724 0.1674993040306455 0.0165798145895613 0.1847134375986482 )
( 0.3340450215767212 0.1464660980200418 -0.015220249020856 0.1722319368720669 0.0177546307209645 0.1830670973621036 )
( 0.3414863540010202 0.150911550706057 -0.0153868932269517 0.1763525080109341 0.0184905961089492 0.1814079025158289 )
( 0.2179032908587727 0.0848876052787653 0.029340655610353 0.083293219465279 0.0041708866823228 0.1039697077273136 )
( 0.2239159835651774 0.08900810001339 0.0250397363622683 0.0844918124034803 0.0019059183389224 0.0989735863249135 )
( 0.2343507595432675 0.0952303956370294 0.0155269585927856 0.0878932816631102 -0.0021550965810648 0.0978350701696406 )
( 0.2452753136458446 0.1025998372559247 0.0064415897463218 0.0937276770353275 -0.0056529317067307 0.1069806481411909 )
( 0.2520866206179983 0.1080181175198431 0.0017246555523678 0.0983064572178017 -0.006434098808355 0.1193419439281745 )
( 0.2574135965112342 0.113304750501829 -0.0018477518798755 0.1043571420586742 -0.005802914407243 0.1327035769672117 )
( 0.2612605188719077 0.1185257506861297 -0.0045813129761033 0.1113720214666909 -0.0039163134885789 0.1448889523320932 )
( 0.2638809347522321 0.1240249205781839 -0.0062247847054513 0.1192813400759138 -0.0007943654962499 0.1562276662834051 )
( 0.2667843217802544 0.1300472819948422 -0.0074491284470869 0.1285945339154758 0.0029934905570119 0.1651538960859856 )
( 0.2706599779084666 0.1364758168292741 -0.0076799529407898 0.1385007297128368 0.0075732711756715 0.1719039870351593 )
( 0.274893449767066 0.1437863927191877 -0.007467904439984 0.1494845362905431 0.0126061929959861 0.1762560912921615 )
( 0.2792468004702716 0.1516840651804055 -0.0074331776903966 0.161705754337651 0.0177067334674305 0.1791557972296573 )
( 0.28545799712149 0.1604286058259494 -0.0071426869942877 0.174100628431023 0.0221485051988215 0.1797081225554329 )
( 0.2924562949847545 0.1692229468663342 -0.0073016047637433 0.1856441015396362 0.0252614217774442 0.178581790444873 )
( 0.298765028880678 0.1767056707743415 -0.0077127714378757 0.1952950235138121 0.0275035466479866 0.1777954557960664 )
( 0.3047378625974826 0.1836306046564413 -0.0086864368742096 0.2037250357253483 0.0287432832873042 0.1765455220678467 )
( 0.3099011643660453 0.1899073715431887 -0.0096014169159943 0.2107748068337526 0.0292423800212084 0.1750479995419799 )
( 0.3150420207514456 0.1956505916802099 -0.0102708778787197 0.2165037860266636 0.0292232204381499 0.1735339879394171 )
( 0.3208199741150538 0.2007769193737072 -0.0113394733300051 0.2212697887578313 0.0285865764882373 0.1722538409086991 )
( 0.2186562980326766 0.091986060403487 0.0341779600553923 0.0864409367054138 0.0019592603459784 0.1055067529463468 )
( 0.2220348921144176 0.0964980075399783 0.0305996072953288 0.0890836163603713 -0.0011528874868737 0.1076929930511302 )
( 0.2268810889345288 0.1025436980265585 0.021699175876519 0.0937601867977797 -0.0048533040106827 0.1164724838902597 )
( 0.2307854185957037 0.1092684356914011 0.0144827196880314 0.1012186935417211 -0.0068980433695881 0.1313613173056348 )
( 0.2326787134005737 0.1148268776064214 0.0121898029347071 0.1081291828790618 -0.005803798329749 0.1437380100356116 )
( 0.2339874660882753 0.120809554502676 0.0109014146446483 0.116704539772148 -0.002696718046987 0.153670053947086 )
( 0.2351914048281185 0.127857079987027 0.0104557714188656 0.1272006747639217 0.0020694864128108 0.16113556589304 )
( 0.237168957857566 0.1358002878174312 0.0107001995939363 0.1390080278089866 0.0080682131959339 0.1671037549005528 )
( 0.2412057865716594 0.1449841741664127 0.0106841860927286 0.1520300779781767 0.014187940621958 0.1704487816240761 )
( 0.2459061395199765 0.1551644089754116 0.0102924411281184 0.1663700775185095 0.0202556848561683 0.1726243001560535 )
( 0.2518446973002544 0.1663389751657144 0.0095507308477528 0.1819313201052882 0.025815949247772 0.1725110175060623 )
( 0.259832164550711 0.1778459872450372 0.0081182211706893 0.1969395207069359 0.0299206192962971 0.1712936143707256 )
( 0.2685437345459068 0.1887125969293717 0.0064279271277287 0.2098833171906808 0.0323841251862069 0.1699774018323042 )
( 0.2771066890422036 0.1990759913279894 0.0038799397458543 0.2222160501406704 0.0332047617700924 0.1686784142348362 )
( 0.284019204702033 0.2073655745346286 0.0015336580507654 0.2321587473576992 0.0331238125670999 0.1678375506355362 )
( 0.2891896815243859 0.2137121203838595 -0.0005131221313371 0.2392028887734819 0.0323082924652604 0.1669194138229992 )
( 0.293451190542729 0.218737563249603 -0.0023678449517535 0.244388835124069 0.0311788091910723 0.1655527991317048 )
( 0.2973923994487802 0.2232569673811384 -0.0039258724666044 0.2488476439979926 0.0299499764321663 0.1642107025865371 )
( 0.3013638082279712 0.2273787540960629 -0.0056958317566758 0.2525793856389988 0.0282992062427622 0.1626348688066987 )
( 0.210819450245179 0.0952409050561945 0.0410399415250477 0.0920855932337398 -0.0006679372476929 0.1139105134328299 )
( 0.2090984339653322 0.098077371006407 0.0378331191299317 0.0952722970845057 -0.00344388413 0.1205541296027055 )
( 0.2095233015897015 0.1031184900878319 0.0304706586623792 0.1005896369004717 -0.0056055309140673 0.1320328788732524 )
( 0.2096715155796215 0.1092067272301184 0.0262707838379236 0.1099505762440634 -0.0047946568593586 0.1465690337313927 )
( 0.2093461013840252 0.1150110690423216 0.0261515482578381 0.119624489258194 -0.000736165516994 0.1555471204900818 )
( 0.2105129585453412 0.1220071324629249 0.0265467270903778 0.1310657754603859 0.0048892319281283 0.1616105302395718 )
( 0.213507846248042 0.1311246247514097 0.0269284193694482 0.14540195502829 0.012006093445479 0.1654630050257799 )
( 0.219060339762893 0.1422092193910711 0.0267872510170248 0.1619001971529471 0.0192747519270468 0.167364372275022 )
( 0.2267181219093942 0.1538414203278101 0.0261707288029768 0.178163943030743 0.025256776017533 0.1682217767331655 )
( 0.2353551721130334 0.1664744539646885 0.0241921554770508 0.1955048990262037 0.0297448009142921 0.1680906620849685 )
( 0.2455480304474754 0.1802285236278507 0.0208877024319725 0.2134427644118453 0.0327114406231782 0.1670728698814033 )
( 0.255771847685036 0.1931870086543703 0.0168509488150729 0.2291607647142334 0.0341275794575558 0.165857018978522 )
( 0.2646969091498348 0.2044034536175489 0.0126051448079913 0.2424187627995387 0.0340932501856793 0.1643300900191715 )
( 0.2721795880721934 0.213763278878837 0.0082060137696923 0.2536404839597002 0.032742492633883 0.1625402116666512 )
( 0.2771151030430283 0.2202351001801531 0.0047995812908698 0.2617626331764419 0.0311251663282347 0.1602354819693026 )
( 0.2801936464883942 0.2249548881835444 0.0020229759558096 0.2680425658029901 0.029408574894019 0.1574529038567635 )
( 0.2823691038345688 0.2287847225659008 -0.0003615239464176 0.2728976033888939 0.027897889576538 0.1539472290901357 )
( 0.2842920374661188 0.2320742062311616 -0.0020397800861177 0.2764810129707155 0.02674320876285 0.1504345874233894 )
( 0.2862216597903839 0.2351097561082819 -0.0035943417862445 0.2791768728121809 0.0255977714572516 0.1464999062454759 )
( 0.196272798258034 0.0934549283921415 0.0484215863047444 0.0981729047166038 -0.0026649519348718 0.1239838656033358 )
( 0.1904701556158556 0.0942843166965356 0.045511635591127 0.1014190969236432 -0.0041962593411043 0.131390715016907 )
( 0.1893110920590589 0.098772892818003 0.0400200613453034 0.1081056651733685 -0.0037691155228241 0.1414653350188962 )
( 0.1908088888527322 0.1052436555378236 0.0382410226486655 0.1196712235126056 0.0002401163239379 0.1528126530731804 )
( 0.1935030775834874 0.112179760954916 0.0390227038508709 0.1322653950238668 0.0067066425760377 0.1584345988604136 )
( 0.1992772298802433 0.1211127875627454 0.0398823214901974 0.1473753539887823 0.0135805829420921 0.1620778039898598 )
( 0.2071132083527808 0.1324103143765204 0.0393840090800907 0.1653319484343192 0.0207263489617975 0.1646469075751994 )
( 0.2174408017205808 0.1456444185490884 0.0372180661840113 0.1855508021125197 0.0266281918128216 0.165047357044277 )
( 0.2290648821448818 0.1591411010667439 0.0346507623665874 0.2051346565425723 0.0307505634369262 0.1653515564328889 )
( 0.2402030561659672 0.1733691887436606 0.0300604814981404 0.2248760161735258 0.0329878661734529 0.1649817351668702 )
( 0.2500250041524899 0.1870191777484059 0.024032288933763 0.2432192133996066 0.033168724940882 0.1633811329005332 )
( 0.257636225382488 0.1987280026819238 0.0177928019306797 0.2590497639760223 0.0322136382873573 0.1606606819929339 )
( 0.2632460647567127 0.2084823309471799 0.0116610638783107 0.2723861513188462 0.0306102071123776 0.1566278966325499 )
( 0.2670646827262764 0.2158189826478963 0.006532549132597 0.2819376688596554 0.0286818208541106 0.1514821542844164 )
( 0.2692198665611299 0.2209316729423256 0.0029976579939464 0.2892359166388027 0.0274001068501581 0.1460538281434379 )
( 0.2704479005146864 0.2248166498737016 0.0004248138371363 0.2953806254276022 0.0265993828294024 0.1408316224666553 )
( 0.2718798086446335 0.2286428943360917 -0.0013919281414093 0.3006340840535182 0.0261190274703357 0.1356583592699299 )
( 0.273928659304548 0.2325044201322417 -0.0024767921591662 0.3045309438417422 0.0260000068765465 0.1306760016129881 )
( 0.2771116047321287 0.2367864998683526 -0.0030734175640617 0.3072203259147438 0.0262675039258872 0.126142625562959 )
( 0.1783055212545442 0.0873153631938058 0.0555976051894606 0.1044574544133968 -0.0032960676562839 0.1327145684257766 )
( 0.173032916721128 0.0871124321517721 0.0529330562937126 0.1078126607483171 -0.0030399075547105 0.1385500056318657 )
( 0.1747256163138749 0.0920335656450315 0.0490082588623363 0.116218132590247 0.0002126862415798 0.1462584700832949 )
( 0.1809099361623641 0.0995218770470771 0.0482607259166916 0.1304870369198655 0.0063159595160205 0.1538802847688905 )
( 0.1894534502086682 0.1081121783603277 0.0487747150457494 0.1463123377293634 0.0134871688056886 0.1578212723755803 )
( 0.2013718843514053 0.1193234319678055 0.0486357310801897 0.1651409693943876 0.0204006997949396 0.1607385955636213 )
( 0.2142015993785847 0.1330287514034134 0.0463213021702502 0.1866837136516349 0.0259247788109531 0.1628006806576031 )
( 0.226032816664427 0.1473997317083883 0.0415748615800889 0.2095608688761086 0.0295596254253333 0.1630886445746718 )
( 0.2366217053337294 0.1608042755469651 0.0360270117226248 0.2312408119140496 0.0314618978155166 0.1626391109235356 )
( 0.2452185171811128 0.1743675749335878 0.0289267491699255 0.2514449917135558 0.0317220291652958 0.1606488748435828 )
( 0.2510585038883852 0.1867471380926139 0.0205538187759339 0.2705470310867383 0.0304371515580006 0.1560005557700223 )
( 0.2546986402395126 0.1972029911679833 0.0129434180714899 0.2872857117663243 0.0288499803452526 0.1500901247773833 )
( 0.2575922453799432 0.2059658929887729 0.0067582465020595 0.3005165840119069 0.0273767198574691 0.1432963235013088 )
( 0.2602448514376542 0.2134023416303033 0.0021222821992471 0.3107220171270929 0.0261081975610762 0.1359506737781738 )
( 0.2627988943689419 0.2199473151151855 -0.0005721341282581 0.3189995376747156 0.0260574531208895 0.1292695012755408 )
( 0.2653721252624246 0.2254929975901776 -0.0020767756088284 0.3261251312152481 0.0267203224522433 0.1238150620553632 )
( 0.2687963748276685 0.2314889597469865 -0.0027609740652978 0.3325540374085977 0.0276318301423092 0.1190686002462686 )
( 0.274064658503531 0.2387384234307624 -0.002719969815395 0.3381466061837929 0.0289506529055862 0.1151087994533539 )
( 0.2814354063909539 0.2472464954189526 -0.0020342216226955 0.3425341071410933 0.0305437833071151 0.1122631599809647 )
( 0.163272180981368 0.0785453374918277 0.0615073230406138 0.1099353201050285 -0.0024394865108925 0.1378214809772347 )
( 0.161662432824055 0.077737123516228 0.0595577543254819 0.1135571292376687 -0.0003700532741357 0.1407345653157428 )
( 0.1693467057947602 0.0841159724419975 0.0566942757708655 0.1238258415344086 0.004947385488437 0.1464462912275313 )
( 0.1815472876368687 0.0935844073765841 0.0554005496845359 0.1414168372468925 0.0121167039382391 0.1524855616579547 )
( 0.1955046523055059 0.1042263763355185 0.0544627952443283 0.1612420182415886 0.0186693849888931 0.1560696139379042 )
( 0.2105494193757131 0.1174667732052394 0.0519270876000316 0.1836731888052445 0.0241311192439468 0.1591512137009896 )
( 0.2236345478340066 0.1319658601837152 0.0469942511540068 0.2079835646308128 0.0279717713338982 0.1610260495171299 )
( 0.233511233037782 0.1462080187968764 0.0400047773881234 0.2328503873851049 0.0299067518340932 0.1604732233216841 )
( 0.2405137366739521 0.1590578034791333 0.0318638882633989 0.2566900400072799 0.0298462194640501 0.157719798893274 )
( 0.2445775361047027 0.1715742941736597 0.0227157651536429 0.2778952135042803 0.0289745976756026 0.1527618173171037 )
( 0.2472268003144192 0.183429157011454 0.0134829076528263 0.298114346475762 0.0276818285589857 0.1450319306175105 )
( 0.2498198418931668 0.1946476182483752 0.0061583048661145 0.3161330047042512 0.0265632258651321 0.13692294591734 )
( 0.2530146910281945 0.2050348354293997 0.0009818008720195 0.3307071132235338 0.026053388685435 0.1291338387176392 )
( 0.2566685448046786 0.2146940136004372 -0.0021889845736119 0.3434550677034581 0.0263690304180726 0.1219946258302699 )
( 0.2609744185213298 0.2241475167237687 -0.0035069997403481 0.3539910016952947 0.0277486725564311 0.1165456718312589 )
( 0.2666573962628832 0.2337126039335425 -0.0039158617568449 0.3638003884547873 0.0294341273487376 0.1124883706952743 )
( 0.2738229987008189 0.244372671962111 -0.003363885972957 0.3729577217017616 0.031451867200663 0.1096023692947812 )
( 0.2834673471946949 0.2568763474314484 -0.0019339095653238 0.381115810138808 0.0338148996988637 0.1080239153377789 )
( 0.2955535488818387 0.2707923134378431 0.0002758666333819 0.3875245050270736 0.036032205936083 0.1077047283994246 )
( 0.1535382982351902 0.0679319909030094 0.0657445750583619 0.1144262233563572 -0.0003987581865854 0.1380801866031892 )
( 0.1575815245515335 0.0674278814033035 0.0641424626320066 0.1187340157882687 0.0031452710570055 0.1386201663765828 )
( 0.1718250463493406 0.0762730875652533 0.0615187292530613 0.1318246400803506 0.0096377818312542 0.1435700493597938 )
( 0.1888441906100741 0.0882934057120507 0.0590262976389418 0.1527075015754627 0.0165502259954733 0.1496181122177439 )
( 0.205463984322931 0.1011631271005244 0.0557188970742428 0.1765879813409331 0.0219147503094523 0.1535496926939151 )
( 0.2192383812334707 0.115652723555034 0.0507543559887913 0.2023799756141955 0.0257289949978704 0.1566850424997554 )
( 0.2285098882453859 0.1296644552910529 0.0432096813281195 0.2291686239616205 0.027996119217602 0.1575137284064353 )
( 0.2353106057726197 0.1434099024091831 0.033973913374382 0.2558457919394414 0.0283149382687602 0.1555252735696542 )
( 0.2389315735735915 0.1563631181377895 0.0241694156602122 0.2816785862231674 0.0275125387863719 0.1506679181889388 )
( 0.2400007930854411 0.1683358186511255 0.0143162477283875 0.3057794902835721 0.0265928466895321 0.14292275023419 )
( 0.241788721224306 0.1810794890321804 0.0058944529236091 0.3278237483928371 0.0258801061065073 0.1337626240036575 )
( 0.2453425644090009 0.1948324091412407 -0.000138944408288 0.3479335448466196 0.0258562837663715 0.1253326363917848 )
( 0.2505383768157342 0.2089022616267414 -0.0037647951809146 0.3655504694290245 0.0266667197206463 0.1181220274104856 )
( 0.2566089597947598 0.2229908118647542 -0.0051894894886546 0.3820799466716244 0.0286452980613345 0.1128274713269001 )
( 0.2633745935580959 0.2367156922081186 -0.0051775804004292 0.396600786337361 0.0311305075993297 0.1095480363423348 )
( 0.2726037778993675 0.2516909898028924 -0.0043514762223484 0.4101738361303966 0.0335014805063876 0.1076248527701893 )
( 0.28368130646386 0.2680818851440266 -0.0023498276176477 0.4227955894937056 0.0362014030541297 0.1069942500829832 )
( 0.2976158662848999 0.286359040512657 0.000594762451809 0.4338936972100826 0.0387536959535982 0.1075817941141439 )
( 0.3151664644099551 0.3065646144669356 0.0043257420411283 0.4424453395857746 0.0408870576074213 0.109254503490103 )
( 0.1504992734914727 0.0575163883525518 0.0682549841059059 0.1187886967341293 0.0023054328610337 0.1359470569191688 )
( 0.1607928828392403 0.0591358750832836 0.0661184755630121 0.1244733261230671 0.0070540711319693 0.1350735192188948 )
( 0.1791371076393475 0.0709553792520798 0.0623233454727207 0.1413131052912698 0.0138132901959523 0.1400745975944768 )
( 0.1979491270666246 0.0845100915550021 0.0584110616068022 0.165311603170676 0.0194316311397832 0.1465798729781423 )
( 0.2135476304539016 0.0990300726632258 0.0534045742539696 0.192385054738387 0.0235338029567956 0.1513715458445346 )
( 0.2241912505736789 0.113584704873667 0.0463854306143919 0.220697461012578 0.0260320811946864 0.1536633582645939 )
( 0.2298177762608306 0.1267940406340336 0.0364317017853971 0.2501914568846745 0.0266681639009231 0.1522665658550531 )
( 0.2328837671824707 0.1397962961316921 0.0252808608327795 0.2801049936573157 0.026038993288159 0.1484759467823879 )
( 0.2340241375080632 0.1526151795866411 0.0151211128822825 0.3078067049580582 0.0254025659128902 0.1422129565226063 )
( 0.234252511935674 0.1657744199045751 0.0058998659871971 0.3346643336572398 0.0249117143485066 0.1335171354097784 )
( 0.2363964003602162 0.1816461082464786 -0.0009113796028006 0.3604067613632428 0.025381065359217 0.1246470336975878 )
( 0.2415081779938758 0.1996840523665703 -0.0049654052262607 0.3840935754325907 0.0268655734360946 0.1172390051439811 )
( 0.2487681804909502 0.2181452381168058 -0.0067490078478389 0.4059607110837279 0.029164563223879 0.1119228195006411 )
( 0.257751265877451 0.2374380557886163 -0.0065490372773143 0.4264621554682438 0.032139388829477 0.108877595579941 )
( 0.2684024835299367 0.2571047055706629 -0.0051291956219641 0.4455736821242043 0.0349949137152851 0.1074740463504061 )
( 0.2811967831360238 0.2781544018663094 -0.0028223463080508 0.4641104881318263 0.0377267634014729 0.10735532454849 )
( 0.2963964108399747 0.3010028406199329 0.0005662480346154 0.4813389029328532 0.0404757208134227 0.1082619933884279 )
( 0.3155464664323048 0.325619188308257 0.0046951366328812 0.4956623456577876 0.0426794406631999 0.1100518035115405 )
( 0.3397413570260857 0.3522762899990402 0.0094574879483672 0.5060802056604593 0.0443356418422597 0.1126742438710799 )
( 0.1530078968523423 0.049153730781629 0.0687945388636168 0.1227693136008218 0.0050756923311405 0.1324827979295872 )
( 0.1667124317399571 0.0535331245229597 0.0656948617205453 0.1302148898108274 0.010473599605609 0.1312040130005786 )
( 0.1874971187750546 0.0677500029602083 0.0604233946404302 0.1513010481455726 0.0168998772413035 0.1368832851412547 )
( 0.2048944514289761 0.0823644783445554 0.0543996678052586 0.1783821782546451 0.0213235743883484 0.1432538786897327 )
( 0.2173517834479454 0.0973153960567755 0.0473404159598674 0.2082784671477713 0.0241790473360144 0.1476940672000782 )
( 0.2246210003000287 0.1111318961259279 0.0381230986606453 0.2394653902112508 0.0252974507674158 0.1487996678996768 )
( 0.2276373055253033 0.1230295459618852 0.0274467601309093 0.2712466192309901 0.0248950162331093 0.1463769049299897 )
( 0.2281552667394766 0.13544218241806 0.0164479265642296 0.3037962488979191 0.0244182006609297 0.1416848070004409 )
( 0.2276659876143084 0.149820197503603 0.0064790830909578 0.3351838802363212 0.0241622285159098 0.1341887272858138 )
( 0.2279508175974885 0.1660272195493057 -0.0014262230457749 0.3656631785613982 0.0241057258836476 0.1259985202504953 )
( 0.231026893143615 0.1857359583676236 -0.0061673745672123 0.3956795643478091 0.0257963096516865 0.118388454796413 )
( 0.2383587935470989 0.209102146427802 -0.0080956537461259 0.4246844761099579 0.0287028905225869 0.1124551834110547 )
( 0.2481699638676014 0.2326072624505448 -0.0079556253042373 0.451128303001041 0.0320902464021136 0.1091945013641849 )
( 0.2602137428062529 0.2574472398421616 -0.0061570761519146 0.4761184634717644 0.035606720993734 0.1078628245352492 )
( 0.2749045670220152 0.2839123155303493 -0.0032832046550043 0.5010014358266283 0.038772306422133 0.1080154302594795 )
( 0.2917923987467988 0.3116755610208401 0.0002535723945483 0.525483775828801 0.0414727472427927 0.1090251829226565 )
( 0.3122418538708255 0.341320335061513 0.0046041836992945 0.547912936708533 0.0438407391374594 0.110779523396734 )
( 0.3377882132645716 0.3726183221221036 0.0095629748152686 0.5654457496959188 0.0458404215157712 0.1132534857896136 )
( 0.3703802951121056 0.4067501554270541 0.014895209329269 0.5780286752487532 0.0472572366141801 0.1163849155007358 )
( 0.1568588217094327 0.042776101765357 0.0668335515137449 0.1266108045108647 0.0077722308878688 0.12779376587921 )
( 0.1721998813745053 0.0496034071208568 0.062756324713457 0.1365496048974269 0.0133918377776344 0.126646378942365 )
( 0.1938834838282646 0.0657431011676317 0.0566313209033621 0.1617361649494128 0.019090879434973 0.133686415106728 )
( 0.2086251477221861 0.0807133078573689 0.0487701121435203 0.191450794174471 0.0223700766484033 0.1399682297364574 )
( 0.2181569889503081 0.0947599687046609 0.039951867872948 0.2239331964490837 0.0237322387856838 0.1435578298473659 )
( 0.2222493202484687 0.1077456432019872 0.0289454388573755 0.2583100228248108 0.0237617835599476 0.1436926705129663 )
( 0.2228286331194423 0.1198447773183337 0.0181835984699482 0.2925312321981057 0.0234516751882152 0.1409444465542779 )
( 0.2219122815854697 0.1334921099440345 0.0080055397475768 0.3279046928647116 0.0233261715948579 0.1354328980730716 )
( 0.2203496343387493 0.1496423265477607 -0.0007719819363921 0.3633652795018256 0.023286091428433 0.1277167009807806 )
( 0.2208978515075091 0.1690372036372065 -0.0066146286674747 0.3987207194136431 0.02422939813175 0.120346874120089 )
( 0.2254131028224383 0.1930499468676388 -0.0093989483068787 0.4339827525368119 0.0272484891311213 0.114288756915301 )
( 0.2350861821405735 0.2214979080527357 -0.0095729323700977 0.4691106408296953 0.0310314306961441 0.1102049456822066 )
( 0.2482075946777826 0.2517014893086853 -0.0076670141253325 0.5019371024613326 0.0348451801985598 0.1083357634186532 )
( 0.2642117965653004 0.2834202494603159 -0.0042893272255337 0.532982767483897 0.0387486667909311 0.1082144189579863 )
( 0.2829556583181331 0.3165222902871641 -2.9879579171489057e-05 0.5645590497626394 0.0423982602198706 0.1095085947502688 )
( 0.3041790354924279 0.3504037185852866 0.0044425165441844 0.5947119157555676 0.0451456234866168 0.1113936542018691 )
( 0.3301997033155097 0.3864180287447244 0.0091114410488208 0.6216368958007644 0.04707610232879 0.1135137415410148 )
( 0.3644951265172209 0.4263327687920817 0.0144633800463779 0.6432486830077555 0.048744423277086 0.116192593403079 )
( 0.4088021061214033 0.4700470531021065 0.0199658016857398 0.6585330159943611 0.0495319171886104 0.1195000535965323 )
( 0.1609897320238733 0.0381124448599386 0.0626503497560064 0.1307016303238539 0.010211466813626 0.1220429218321744 )
( 0.1771871187050388 0.0475998119258818 0.057096828176611 0.1440775713083983 0.0158455289084119 0.121723060522888 )
( 0.1969551673030271 0.0643760131820573 0.0503627009154024 0.1722730965661923 0.0204847241667179 0.1301162447834678 )
( 0.2093572645147526 0.0789276630483585 0.0421324385394798 0.2045685459653946 0.0224369021841015 0.136547719988171 )
( 0.2162676716635151 0.0924387815486753 0.032126824313822 0.2397328553501013 0.0228145999261511 0.1399752232404861 )
( 0.2181657270248261 0.1050597175509199 0.020229274063637 0.2767542643315254 0.0222722595445377 0.1393404389546378 )
( 0.2167624359856491 0.1178344223842363 0.0092476206070331 0.3139077059091397 0.0220195893024069 0.135823519399128 )
( 0.2139771448055193 0.1327562306638894 0.0001041469138299 0.3533349966906572 0.0222655003110809 0.1297909308567569 )
( 0.2121453610953907 0.1504931612740001 -0.0065548993315687 0.3933720346931429 0.0232158968162119 0.1230592059519451 )
( 0.2136380601068933 0.173351411799441 -0.0103372390881949 0.4332192243230478 0.025376312597761 0.116750943696724 )
( 0.2204333905308337 0.2031165452646038 -0.0111466390233762 0.4754623561869878 0.0293475705207699 0.1119153563294756 )
( 0.2324735111412029 0.2373373796387212 -0.0094970871686101 0.5175423103571938 0.0338450283514105 0.1094703643746887 )
( 0.2485418406540874 0.2742692103991374 -0.0061639173437514 0.558184836250931 0.0379709254721029 0.1086887182367443 )
( 0.2688971058991026 0.3134094616705573 -0.0014573079130423 0.5975425223018224 0.0422230349823848 0.1095244746055245 )
( 0.2914917428063374 0.3521743471614261 0.0035742386819182 0.6354085554951637 0.0457383812042175 0.111376642064378 )
( 0.3178780796969877 0.3923902170982229 0.008469452135061 0.6708863444202954 0.0482523948738534 0.1134896969504354 )
( 0.3518983212436604 0.4374937295619746 0.0133524632282228 0.7043205813536971 0.0499377993457038 0.1159090152840828 )
( 0.396842312985232 0.487852764298456 0.0188026435131361 0.7320529547649822 0.0511488967189114 0.1188398316234811 )