/*--------------------------------*- C++ -*----------------------------------*\
| =========                 |                                                 |
| \\      /  F ield         | OpenFOAM: The Open Source CFD Toolbox           |
|  \\    /   O peration     | Version:  2112                                  |
|   \\  /    A nd           | Website:  www.openfoam.com                      |
|    \\/     M anipulation  |                                                 |
\*---------------------------------------------------------------------------*/
FoamFile
{
    version     2.0;
    format      ascii;
    arch        "LSB;label=32;scalar=64";
    class       volScalarField;
    location    "0.0069";
    object      k_LES;
}
// * * * * * * * * * * * * * * * * * * * * * * * * * * * * * * * * * * * * * // 
 
dimensions      [0 2 -2 0 0 0 0];
 
internalField   nonuniform List<scalar> 
13597
(
0.234221999783128
0.2399578169683726
0.2495779447347127
0.2610610713234401
0.269489783854848
0.2748591391002533
0.2783034937824033
0.281090840433348
0.2829553805235893
0.2834718174393392
0.2845039487423202
0.2851959991992319
0.2851947728788938
0.2851287638125822
0.2842588992350875
0.2839522502146394
0.2839057615206001
0.2829250874721818
0.2818083615413536
0.2595805492360045
0.2685486280020506
0.2795220305489941
0.291710016582158
0.298548773786967
0.3023881874187665
0.3045952524295525
0.3063537979601356
0.3083098741543414
0.3090245659836668
0.3101085076906971
0.3109548456882853
0.3115009738729843
0.312091524132924
0.3124117776261605
0.3120987854685766
0.3112851329430893
0.3108479490642903
0.3103777926469239
0.2821099579006597
0.2912344550135031
0.2994280455362517
0.3069790460340537
0.3109269520094651
0.3136185818466347
0.3148929284304898
0.3163014981276912
0.3186382368843212
0.3208751510418306
0.3227816382987277
0.3253333527920917
0.3281422009985056
0.3294814612313145
0.3303832006922048
0.3304023234838722
0.3294968985604705
0.3285802223783147
0.3265556470596719
0.2960391053767913
0.3023928844092955
0.3059381348905736
0.3098225133569276
0.3130887976516358
0.3158298613449324
0.3187283896569554
0.3222816691332504
0.3258881095259432
0.3291739699723246
0.3308998693741942
0.3327699419134122
0.3341700949940314
0.3340752367102896
0.333242967342197
0.3320810446995793
0.3304591582718062
0.3287329928003226
0.3267288714497336
0.301461342367714
0.3028117078241929
0.3045155252526635
0.3089108598517007
0.3127402814262776
0.3166311131232036
0.3201218862375164
0.3234163710183215
0.3260774803864567
0.3276701422340676
0.3289373992471037
0.3297119060602808
0.3294657518000337
0.3291096309830202
0.3286507200320097
0.3282810731204937
0.3276218041008409
0.3275223854446222
0.3279268138171187
0.2991438308004487
0.2975877256983723
0.3003035957304855
0.306759381297455
0.3111152917431707
0.3155896401754971
0.318371818452772
0.3203916164432719
0.3216490914542092
0.3218816451976614
0.3225637622274123
0.3226283561735195
0.3227068448235449
0.3238325868402054
0.3256061593218337
0.3274883520115998
0.3297281880625672
0.3328116718022147
0.3366574732937457
0.2924215120570843
0.291944010495247
0.297228265742389
0.3045272029256273
0.3089657121967651
0.3124626149798931
0.3141138754921191
0.3145039384229854
0.3144379596449402
0.3146226883147944
0.3151780555188432
0.316938350319401
0.3202586868112475
0.3247777253503913
0.3302222435631352
0.335701308817083
0.3415948730400026
0.3483357110631137
0.3557317874055345
0.2866853246112375
0.2883481095625832
0.2958958095264603
0.3029659277781306
0.3061034967468103
0.307796806203717
0.3073062495573552
0.306763958181775
0.3072439976324
0.3087223355117662
0.311816424616151
0.3179992531864513
0.3262366393922861
0.3349849361206721
0.3437824626387277
0.3529023533168711
0.3623038895622939
0.3722576869844381
0.3823446195108417
0.2828869706562711
0.2868019916697792
0.2953657585633717
0.3009727560160806
0.3019590444459659
0.3018211459916472
0.3001052476354321
0.300378703322061
0.3029819999766552
0.3076136692369422
0.315540961951716
0.3266262061777497
0.339540946001375
0.3523392439140399
0.3640839742493579
0.3764221365051979
0.3887650638952236
0.4013612208418567
0.4141088540152567
0.2834489258726289
0.2887903115128752
0.295081588018838
0.297798010310677
0.2972111465464793
0.2957939593819408
0.294492706100794
0.2968502416705864
0.3027423554791456
0.3119696580825413
0.3251914472225892
0.3408147801984675
0.3571906469235542
0.3732630762542195
0.3885497795167607
0.4039496694265545
0.4192621468325973
0.4345489220125968
0.4500049160349907
0.2866926516601358
0.2907052946650355
0.2940355890456171
0.2938298862236455
0.2915899006031252
0.2901726216218648
0.2916175148212407
0.2974267037645592
0.3073871762478755
0.3212815606677512
0.3387687088937179
0.3586900289191173
0.378096023343121
0.3968108688725204
0.4157680314180796
0.4344399373482171
0.4531411945954929
0.4715630024743324
0.4903966487538032
0.2897257483535396
0.2912025854250593
0.2918409263552877
0.2893821803924705
0.2867776910894213
0.2870763221903014
0.2921585283582075
0.3020227197426572
0.3158403175332422
0.3337903543501282
0.3550105292134283
0.3785289547325312
0.4014223112322722
0.4235036435342467
0.4459089163134681
0.4677431017643028
0.489717197341428
0.51238375820872
0.5358840560180201
0.293181659158138
0.2917763554951206
0.2890566162900672
0.2855910108376015
0.2843046261806632
0.2871999708892114
0.2954738095073826
0.3092768197507768
0.3271421428867752
0.3481834647261284
0.3732250035843698
0.3999003653691595
0.4262111710369827
0.4525513399672651
0.4781185873393418
0.5032473621363343
0.5299559740525996
0.5580510653812447
0.5861963673766807
0.2964019203252297
0.2912234999023477
0.2857719863850092
0.282488777063442
0.2832883101318682
0.2895149351063418
0.3010670587961987
0.3175781762073105
0.3389789692572655
0.3638800089047593
0.3921857600745496
0.4226393479141103
0.452638714952164
0.4822554291326888
0.5117753762572923
0.5422219122370048
0.5749918637988417
0.6085252883466844
0.6428318135329572
0.2973695515685973
0.2886592713733005
0.2827151853792069
0.2804634876362947
0.2839552951047459
0.2932494901246422
0.3080466409807121
0.3279081285129905
0.3521335412780698
0.3805441680715604
0.4124574733775988
0.4466682929164204
0.4810021925582745
0.5139760978161924
0.5482373427141997
0.5851431103113494
0.6240847590169498
0.6648636441323506
0.7140302795749301
0.296530063317149
0.2857741198859275
0.2802522690278695
0.2798797434412836
0.286090871147859
0.2979453541093724
0.3159207289943524
0.3390797341590219
0.3661682991743073
0.3976966982088369
0.4339744297890322
0.4725207124961634
0.5104408118649195
0.5475222065401586
0.5871288185821474
0.6301918324091207
0.6770763734771084
0.7333356758484123
0.8097759619272868
0.2940780012023875
0.282769458709778
0.2785263093348353
0.2803439258310111
0.2892848024139526
0.3041701744093674
0.3248008778979768
0.3499269469270009
0.379864389159411
0.4150143847157047
0.453754642217375
0.4965822595471443
0.5393840879873838
0.5819874873100757
0.6280022877493607
0.6787801270537943
0.7389861614978559
0.8209884076453569
0.9239179322422836
0.2906999870827484
0.2797896352396274
0.2774484437088539
0.2818719810143327
0.2931031542377184
0.3106394971952866
0.3331928465806454
0.360793024558928
0.3941523090929779
0.4320171265842901
0.4741634301255991
0.5213380305296248
0.5692473186215271
0.6181841488031355
0.6713757900837065
0.7323408073560116
0.8146974552084756
0.92637544229895
1.0261395310546788
0.2877853092936169
0.2778613940960209
0.2774181666828345
0.2843242608249535
0.297635978161369
0.3173623455211126
0.341120681408706
0.3710629932243541
0.4078107839896694
0.4489200525672819
0.4962689199822736
0.5473953777088796
0.6003368085220551
0.6563696474542464
0.7174364698929565
0.7951500605276781
0.9067952943704812
1.0436172506303103
1.1063015018231648
0.2849385237018895
0.2760127686418436
0.2782664554354528
0.2874023533191868
0.3026304021734716
0.3244332146122517
0.3502699366783683
0.3814834184786961
0.4202797492037943
0.4655254863636748
0.5179201600842988
0.5738852939108813
0.6323219414589082
0.6946367920056945
0.770063770898427
0.8699733518396633
1.011583186504623
1.1588351011745106
1.16094747879142
0.2817225180922538
0.2741775741396791
0.2789362329626632
0.2901774212105115
0.3070910238185325
0.3306682519531426
0.3588584686131845
0.391305328651015
0.432692014949328
0.4819349603338152
0.539377486274948
0.6020417140606275
0.665207637354874
0.7331428903294213
0.8256869151726206
0.9557283653876066
1.1254414160542447
1.2617277912671838
1.1587636935832164
0.2783327314053316
0.2728516059153217
0.2799262497136117
0.2928642043739864
0.3117526023785084
0.337569669460099
0.3670874247906803
0.4007327695358059
0.4459451993346736
0.4991561929076881
0.559752252263669
0.6261912742182372
0.6949810942117008
0.7755653527008723
0.8853209462004459
1.0480993714883315
1.2382536295499884
1.3435947630510974
1.0783267729002808
0.2749551833789441
0.2719343373073727
0.2812524092732218
0.2953746529023278
0.3160003560687779
0.3434932121548391
0.3745754333394755
0.4106116711782339
0.4594149996295769
0.5173719897530598
0.5808960121208665
0.6496346946157525
0.7245961881663302
0.8192222200186566
0.9554913816895216
1.1484336816619638
1.345641723208279
1.367293953048416
0.987032788735616
0.2717909076292084
0.2708846934776406
0.282660028316699
0.2978026961442798
0.3197403857609472
0.3480587238877622
0.3804270071195775
0.4195627637541142
0.4708671154897248
0.5318940738259686
0.600007761186598
0.6756189322900159
0.7587502466024186
0.8670807942169197
1.0308514085156055
1.250004042290935
1.4433755312118215
1.348930236013738
0.9026937158789944
0.2689621224811327
0.2697594715385909
0.2837796045472803
0.3004482666947206
0.3235377449097522
0.3528702860794169
0.3864615546151569
0.4276374810539678
0.4805119820580659
0.5441368846514584
0.6180266255759085
0.7007273705441238
0.7928933481310316
0.9234071750306196
1.1097714773263645
1.3442611937502482
1.5137505112682244
1.3205441775776403
0.8082439719956072
0.266329143046817
0.2687156159344549
0.2844147621064817
0.3028438315762827
0.3273775429667263
0.3574657177341418
0.3926378961778259
0.4354868839206484
0.490319655785823
0.558367307906774
0.6365272721460262
0.7240752259001085
0.8267906270193364
0.977584203978916
1.1860906316752835
1.4330609773646137
1.5345586228551142
1.2562027129985378
0.7373481821982262
0.263248202935108
0.267259335754809
0.2850326292224974
0.3048666979048469
0.3304694864201803
0.3615526765959213
0.3984663185940433
0.4436902532212882
0.5010074565667266
0.5724701654368227
0.6537927760811613
0.7454810219006287
0.8596199444715017
1.025701631848016
1.2587229041359846
1.510849304899167
1.540776848757138
1.1837492035085573
0.6778680172241086
0.2600079113669836
0.26578099514891
0.2856134131225166
0.307044107920438
0.3333137722326105
0.3652161011695816
0.4035225219933185
0.4507426675789714
0.5105888202075054
0.5861430517612158
0.6715382338818044
0.7658553277020892
0.8903360880592064
1.0742486223695755
1.3369490684194127
1.5860521779486896
1.565181660740287
1.1352870245684072
0.6273161524120968
0.256638263970378
0.2642118550004956
0.2857079545153374
0.3091003159852655
0.3358836174537108
0.3682072367503163
0.4076517413170046
0.4563890821865544
0.5191118360978918
0.5981931673425819
0.6865609740178065
0.7878058891279571
0.9293001496098507
1.1262680891728272
1.4060979149138528
1.6421523183560371
1.5659021029474909
1.091155318014613
0.595411084620594
0.2533382340900366
0.2624609130388193
0.2859753150621121
0.3109781939770266
0.3381556882145448
0.3713973846487557
0.4116305173904854
0.4616383593264326
0.5275107280594197
0.6076757874853931
0.6978542800314677
0.8099903814869556
0.9639221255718708
1.175448532986875
1.4646773303622536
1.638416160857718
1.5072966804628136
1.0483399196900764
0.5772008215400293
0.2504528899079589
0.2608346076721288
0.2861926307735661
0.3124913954080016
0.3407105407234829
0.3749578117051661
0.4157435958892833
0.467511970306882
0.5356117785498181
0.6171076905141167
0.7104661364088773
0.8310408389317723
0.9890366844627134
1.218792919229381
1.5177620370507163
1.6269453105368572
1.44626238513553
1.010326604029534
0.5645853845849186
0.2476482490634092
0.2592656728246678
0.2862097429115554
0.313313761371342
0.3427444521644036
0.3778574694212557
0.4197421783921036
0.4739762300096593
0.5434190146096569
0.6266193088162825
0.7234319692469371
0.8495686859749587
1.0151800206532362
1.2698654966220444
1.5670837106879525
1.6440051725913225
1.4296488997245576
0.9776689670195357
0.5483730319898993
0.244845554868657
0.2578878781217329
0.2864295679183795
0.3142137134951244
0.3441484663410952
0.3795278644713592
0.4227968706606745
0.4793069611864761
0.5504083643340891
0.6361672393424508
0.7362106046745446
0.8671553191497242
1.0390578278172486
1.3125563278520085
1.6130387049832526
1.66986007393597
1.4296931874035794
0.954106080290934
0.5294603214279742
0.2419659068924329
0.2565834958099784
0.2864049320572397
0.3149199021227646
0.3457614256840339
0.3814225225730002
0.4249389015582508
0.4831255363700208
0.5563037540688176
0.6460164352693847
0.7506255780695459
0.8846113580144601
1.0605953917623416
1.3441514966518329
1.6533446496489728
1.6965225702734776
1.433376856909224
0.9400527295438984
0.5181969038860597
0.2395840541225256
0.2555506487790354
0.2863333227189865
0.3152818807825159
0.3473755532999927
0.3836141832118641
0.4269943232167399
0.4860899950978972
0.5612921120877611
0.6539228603207837
0.7620096607763298
0.898751640860009
1.0825624107329574
1.3757593159189156
1.6827879581334286
1.7101898059746434
1.4306390671146338
0.9291012245025376
0.5117694946310293
0.2375363718834846
0.2545356791756662
0.286492360825209
0.3160122718524878
0.3487692422686661
0.3855545836034576
0.4289675969590295
0.4887772265631495
0.5660836671584066
0.6596033741634503
0.7701856586049972
0.9110061852932888
1.1022102574880297
1.3982462870783974
1.704819792154063
1.7230190136758174
1.42420334814011
0.916150026104796
0.5034661668883358
0.2351343582350538
0.2534442142507849
0.2864545621241399
0.3165481944348416
0.3503388431807291
0.3880419229508179
0.4317634681968337
0.4917786486759759
0.5706267646695847
0.6651020028929651
0.7780016022744284
0.923284616404079
1.1192706492482738
1.418291006747222
1.7231441581575695
1.7288175673954422
1.4239976272441914
0.9127944380489268
0.4961094706066983
0.233097107094424
0.2526235187034709
0.2859163124290658
0.3163921939432526
0.350911162741312
0.3892783518531739
0.4342912947078722
0.4949664859839973
0.5754470441080533
0.6700523003418256
0.7848993932640704
0.9343885821692252
1.1389868543879258
1.4400196616986642
1.7303466616209993
1.727375203776384
1.4174791637586062
0.91035162739993
0.4925012130913482
0.2312997398500916
0.2516982032095808
0.2853639804176405
0.3162654821410985
0.3512297419151707
0.3895014080502199
0.4352296105301332
0.4968983430165403
0.5792797255626568
0.6739111315431059
0.7901668184696553
0.9431797651951812
1.1596154276211994
1.4654392469427815
1.733022550278249
1.7203531890795527
1.402843644397714
0.9010744555342513
0.4916860486019401
0.2291116245195127
0.2503206769496889
0.2850614001846779
0.3165508991076473
0.3516781492761126
0.3899913136606487
0.4360134298389996
0.4976432527820817
0.5807262930511455
0.6760153707648723
0.7935667341799693
0.9494025863084256
1.171889089194351
1.4847303316338842
1.737397891591485
1.7089528983531874
1.393879153988568
0.8964148100668086
0.4919097114915898
0.2268274141126367
0.2487288250226135
0.2850274040301572
0.3170626043236046
0.3518628589599093
0.3905421573826549
0.4368940805432257
0.4988842110935468
0.5830961550955165
0.6798566862853318
0.7974989083466122
0.9562748734859564
1.181552676055912
1.494433209819207
1.7355444569425402
1.6941657421312706
1.3830446325673578
0.891141026419347
0.4921782039438842
0.2250485243708004
0.247722408190552
0.2850783466574577
0.3175896781759616
0.3521432963166955
0.3911167779557815
0.437979697300822
0.5006703888632741
0.5863093321950833
0.6858121513807558
0.80310171964969
0.9629366622760648
1.1899566113118003
1.4982324736150003
1.7335203695362948
1.6874873612507018
1.3717808184057083
0.8815589012572478
0.4902952926180649
0.2234760989080499
0.2468102641596298
0.2846814502158622
0.3175586246211045
0.3524782489798453
0.3918844655336039
0.4392595010211321
0.5016256800556387
0.5867600565542228
0.6889137570761863
0.8076900465902025
0.9663317987422044
1.191411653323506
1.503534497516511
1.741430946184531
1.686569588101592
1.3620705129985584
0.8726682005780584
0.4851305671866417
0.2220003143859956
0.2456958413610715
0.2839401722415037
0.3169040080864047
0.3526432468821223
0.3926990018299465
0.4400185948328491
0.5022449132038522
0.5881267344771045
0.6924962706600131
0.8119323913560844
0.9710460031336068
1.1951058762263715
1.5095652622891402
1.737560309226233
1.6727224444334527
1.3516269407392685
0.866865052028895
0.4824803300848909
0.1612086935885258
0.1600321372673643
0.1576458044450451
0.1554616807078115
0.1547790325236934
0.15457131281907
0.1552792771506572
0.1565478947610266
0.1586957745785155
0.1619831340976553
0.1660639236534891
0.1716210341528537
0.177612760070691
0.1838106728002558
0.1909147648080086
0.1977776624175492
0.20476331661023
0.2120560416879591
0.2186682557255068
0.1669691257779225
0.1666499393764559
0.164390485999674
0.1642812633148563
0.1667616598496497
0.1705874630351496
0.1761690870811328
0.1822399646473682
0.1883735614900882
0.1960075499404164
0.2048707295832444
0.2147064246302297
0.224874895437617
0.2345099327388575
0.2436237080273714
0.2515479846731697
0.2584386961952263
0.2648308523576321
0.2695747595354834
0.1770242633987231
0.1783794064888889
0.1779309688715602
0.1810619945432346
0.1864069401641049
0.1930399533328062
0.2006926375393011
0.208971309878404
0.2177424315764703
0.2275007434191315
0.2383708378436825
0.249084373217112
0.2598086507256341
0.2695786959053637
0.2776021456335781
0.2840158315363115
0.2883816958753165
0.2911575740649327
0.2926083096335495
0.1874768658895095
0.1884012916445104
0.1882229417974642
0.1924746031375231
0.1981716690141
0.2048545405953519
0.212954643371024
0.2220360308721851
0.2310731939538171
0.2406442338331214
0.2516808424813025
0.2621027939945858
0.2718664631132426
0.2802036884087236
0.2858393124664927
0.2897938939520231
0.2924457254104051
0.2941867812235498
0.2953690245896683
0.1928663110322154
0.1920246551701704
0.1919227844477922
0.1961054081683009
0.2015405745098717
0.2082392597592411
0.216949865298186
0.226795680367321
0.2365824637355268
0.2472413626501692
0.2590347492650205
0.2698030894011678
0.2789552208437272
0.286670540457022
0.2919961735294735
0.2961727241796979
0.2997252909004511
0.3024610712423404
0.304947753838971
0.1933227807408049
0.1916959547863715
0.1921500120018707
0.1965682501204566
0.2023329382450722
0.210458382239567
0.2202517328320007
0.2311213270907812
0.242750457604137
0.2552409678092304
0.2681400460262678
0.2797934741342124
0.2899011407292458
0.2981545469700675
0.304540393424293
0.3100406972528673
0.3145293388793699
0.3183375825702441
0.3221724913568998
0.1931070506924773
0.1907025008281152
0.1910210349238653
0.1969560099304481
0.2045329539841565
0.214091198096196
0.2257909371360171
0.2383389232030276
0.2522076239866985
0.2667983147501176
0.2809077054550815
0.2936543484074462
0.3045790438426812
0.3141929388214746
0.3220102540430773
0.3284432831511869
0.3341113358081182
0.3394129436995314
0.3444393484742847
0.1922571465460588
0.1895631176667752
0.1915346136500376
0.1987458052778404
0.2075624290636618
0.218592200659977
0.2325483278849976
0.2476249852677268
0.2641004265003077
0.2804845701021446
0.2960030175530327
0.3106235619526779
0.3223529596382435
0.3331344008565569
0.3423435949659495
0.3500822353386978
0.357456840560492
0.3645821358036092
0.3715782391784085
0.1924508811578951
0.190203680278896
0.1932902500689758
0.2018406329962151
0.2122376123446333
0.2250715579293658
0.2414132069354166
0.2597498236139954
0.2780148449706742
0.2960058329845618
0.313137198496875
0.3288616569702288
0.3423312738133241
0.3543013244789755
0.3647384671358644
0.3742675488130623
0.3843083458672152
0.3941902460097749
0.4038793056470463
0.193541795243908
0.1918138243448318
0.1959024050363589
0.2054724463653593
0.2180554526624286
0.2338820125076239
0.2522190445182169
0.2724983555049682
0.2918667051488828
0.3121061531190398
0.3312430260332233
0.3474793305414149
0.3626260387276485
0.3767277212600463
0.3895663247965044
0.4017121241654242
0.4150741722550561
0.4285955703527794
0.4416080724534887
0.1949502654549333
0.1936007460898719
0.1986628833486435
0.2099063580919246
0.2244899731867629
0.2429701918491764
0.2634154934984665
0.2850722712007084
0.3062579802595817
0.3278314941422948
0.3486979004074839
0.3671836656998024
0.3846142343192704
0.4013554303855442
0.4173776184605375
0.4335376562356446
0.4500462522166458
0.466967359027588
0.4838457777957712
0.1964774355068991
0.19557238854683
0.2017705860172058
0.2144960730358657
0.231295784389371
0.2521268544694363
0.2746668595464737
0.2983375015438765
0.3219825285282714
0.3443858971963938
0.3670207149956717
0.3884569084533289
0.4082422577839388
0.4282640969196893
0.4480424348793136
0.4682228656937385
0.4886504685302584
0.5093751894476192
0.5306450000565436
0.1971976119063991
0.1967477376191497
0.2053573350785279
0.2199057457892238
0.2391001486587689
0.2620627696967614
0.2858831155827054
0.3108744549321397
0.3371245401469361
0.3620747741783903
0.3863936140383005
0.4111308265948305
0.4340673957824744
0.4570656094981932
0.4807924992205015
0.5050701513860835
0.5306274257022715
0.55710894053738
0.5845647755835413
0.1977400042316406
0.1976237580939374
0.208615453903779
0.2257399538010928
0.2473712514027182
0.2712721998127342
0.2965894464685715
0.32398083016566
0.3526205216194851
0.3801095171983498
0.4071064686278732
0.4344651067075282
0.460998491664428
0.4872113767192868
0.5153240936287192
0.5458540807111925
0.577004058319443
0.6100027213844522
0.6450322885466273
0.1976139071293009
0.1982085462754342
0.2115728234981692
0.2312872526860733
0.2548067914733405
0.2802286468897663
0.3075067639307681
0.3370047226303962
0.3675927663534759
0.3975022365201942
0.4275134687494527
0.4572895753167692
0.4879493953782255
0.5196977928281934
0.5530267130791814
0.5899650607017226
0.6284554416437871
0.669499249264373
0.7174433366707764
0.1967488160367433
0.198927238932044
0.2156561963464749
0.2374050427112462
0.2621440124341712
0.2890020029708431
0.3187585930776167
0.3497692468039613
0.3811336593898879
0.4142605404650826
0.4469698200133303
0.4806850351091942
0.5167723289884542
0.5547011693540888
0.593761576308935
0.6357931765922046
0.6834677347495642
0.7386577133885778
0.8074493448150114
0.1957863965818161
0.1999950364729668
0.2201172085494085
0.2434795652294643
0.2699647124103943
0.2976358899619649
0.3290234001764731
0.3621294551750347
0.3956453974020485
0.4307993541063712
0.4665085835922804
0.5054224986579899
0.546205461219671
0.5894427411487753
0.6357746299715825
0.6857823559263433
0.7444985166808539
0.8200053890500101
0.909720749999406
0.1945917853768573
0.2008222042912546
0.224195562232663
0.2491841336852494
0.2765496084813355
0.3064868929393053
0.3393452134556649
0.3739967955422909
0.4106781818826828
0.4472368430282687
0.4865813842732592
0.5309532062714346
0.576946970144408
0.6266363217335033
0.680109251548343
0.7409592877574308
0.8166618348912973
0.919516769743195
1.0168410061733195
0.1929377412789244
0.2019371686351203
0.2281710445242843
0.2540431655627169
0.2824322666647156
0.3143250722230962
0.3491051655665491
0.3858018004159939
0.4239796647104171
0.4627737627262396
0.5067587920631619
0.5555336821123743
0.6084755063768054
0.6651967964001193
0.7258794374374086
0.8020901241899578
0.9019837377570208
1.0277649265852988
1.1029708051676077
0.1916501311695203
0.2032227454556028
0.2318772691173529
0.2593882052391141
0.2892949469972174
0.321977012131807
0.3576595942691315
0.3961482496087843
0.4363869016089046
0.4782951291799434
0.5276423391585154
0.5822276417084349
0.6416402230817705
0.7053862507267189
0.7757085601546289
0.8691867490443644
0.9995316782008432
1.133420064934152
1.1608906142068074
0.1907241072573351
0.2048389698821076
0.2357036148153473
0.2649772494788742
0.2957840398007017
0.3292474214620692
0.3665691353297281
0.4059683631114154
0.4478498307302712
0.4934238188797852
0.5480754947140193
0.6104028754872309
0.6755011134082091
0.7474784088625619
0.8324487844111117
0.9471622504399548
1.102903235463286
1.234919568482891
1.1742403372369896
0.1903493557174911
0.2065467721191458
0.2397815394135943
0.2697763964757076
0.3012009081462932
0.3353049367100509
0.3745143944992355
0.4156402250949382
0.4590582246256681
0.5083876875724553
0.5678301600722553
0.6361759056172043
0.707686719081143
0.7886722864146339
0.8884554085884322
1.033499705800202
1.2183907930632611
1.3384011995935594
1.1048607868893503
0.190447475034748
0.2080571901559012
0.2432828115006774
0.2743693146296177
0.3065755610544913
0.341687148209944
0.381637815542498
0.4242510524683005
0.471168359330337
0.5250691083637556
0.5894619105637272
0.6635076589265473
0.742829156769574
0.8334743489179668
0.9546830237281776
1.1320755230162227
1.3321370782463209
1.3655524901031082
1.0086328797585855
0.1907125617693232
0.2101786383463168
0.2468671479138076
0.2787039078341727
0.3120709361368235
0.3483498062320762
0.3881571689100722
0.4314408453651571
0.4815971129618124
0.5410811498172349
0.6104636492133148
0.690057572239077
0.7778774873028689
0.8807863056089649
1.028110857865106
1.2357547186215123
1.4257564742221622
1.3364779245534812
0.9297281439324384
0.1912956263353512
0.2126293085070258
0.2508905083037506
0.2829198865828992
0.3170289616001283
0.3537813592585524
0.3935103155885737
0.4382206150143792
0.4911719592728962
0.5559881449654159
0.6314777700837841
0.7165252626837657
0.8121143406796193
0.9336007254607608
1.105258016758042
1.3272956161719371
1.4903450882618017
1.3200107931365677
0.8481815739251167
0.1919820285691461
0.2145209678692324
0.2543208128552346
0.2870358909896716
0.3212230637416586
0.3583657701293216
0.3993691824051636
0.4458331645749978
0.5015509949999416
0.570451218667571
0.6512020121226044
0.7424645963080085
0.8438556257118115
0.9829490676967452
1.1800937790450696
1.4075050569341276
1.4962119818169526
1.2479101098413403
0.7687685950209469
0.1930928957439775
0.2162886986344662
0.257026418236205
0.2909341576367714
0.3251464010988777
0.3626629310286842
0.405370685933646
0.4531800846133824
0.5112976469190639
0.5827972487423188
0.6691578361015186
0.7679256490369897
0.876768876566512
1.0277925157800083
1.247058053016155
1.4818950861563769
1.504763879572842
1.1793711940798175
0.7018416007286908
0.1944381864385756
0.2182575093478881
0.2595602107352072
0.2941952482477588
0.3290344889425252
0.3670091952021883
0.4102305893309795
0.4591314689916944
0.5197103732927215
0.5945708865140489
0.6866278072752698
0.7905287939986692
0.9115695587483486
1.0793329676990404
1.3216078010160537
1.5619195065593192
1.5395383810857626
1.1477882216122617
0.6579356247619116
0.1956697841335025
0.2207867099378589
0.2626841983790434
0.296554556683281
0.332025094474686
0.3707333361863629
0.4142517667620231
0.4648791808326289
0.5278625925512279
0.606970547287339
0.701581051386635
0.8098395491197307
0.9453280859673182
1.1286438498704232
1.384533599461044
1.6053245134691805
1.5378403344543268
1.1122305729946882
0.6278671457201548
0.1970990214716512
0.2234550926257485
0.2655036699712507
0.2987620444063033
0.3339958931070286
0.3733090701729586
0.4177986343245191
0.4708570803550365
0.5349510328638633
0.6166521381079951
0.7160922941607059
0.832898428987122
0.9806244532989374
1.1709006447048038
1.4355027795797988
1.6064246104182078
1.4797308829707247
1.0556867046156355
0.5978053189817765
0.1986661501652862
0.2256845482648152
0.2674651471342569
0.3006236786230432
0.3359058901334951
0.3755981156357363
0.4206847452141559
0.4764834890409939
0.541788771331752
0.6251049246435332
0.7292168193097335
0.852067069746573
1.0044636952988084
1.2091026108681544
1.4918778553081444
1.610480578989407
1.4229716395776095
1.0002270698284774
0.57030666287455
0.2002279789827316
0.2275726969203561
0.2694967630770578
0.3024774839280738
0.3380197058412532
0.3781640399754749
0.4239128266260685
0.4813768266403519
0.549665064462754
0.6362229030876592
0.742239816814576
0.8680102863568756
1.0248177812172128
1.2504893289617385
1.5460653075099997
1.6334992184951622
1.4100090459221206
0.9663454263147768
0.5468917573099245
0.2024692966433917
0.230153055096355
0.2720234289133874
0.3047070411214015
0.3406649953055713
0.3808652707260138
0.4269391915172866
0.4845772065535692
0.5554248835707565
0.6463448788532694
0.755832369573506
0.8857274443234702
1.050500017428506
1.2932256631941248
1.5913228043583658
1.6656730815052925
1.412361545842056
0.9423524805018236
0.5349475301167621
0.2046980389583646
0.2320030031429086
0.2735896481427248
0.3065574720883072
0.343103272000316
0.3831593194069591
0.4297419784838792
0.4875802276042443
0.560168902402648
0.6528874357539675
0.7636458691719225
0.8996985574433738
1.0713718766946692
1.328671802442235
1.6237640910388125
1.684112337774554
1.4161194564107304
0.9243641502381018
0.5224775727043373
0.2065477192162473
0.2331536943191481
0.274785423674484
0.3083428694527872
0.3451178099872412
0.3854618600231838
0.432042876234109
0.4904169555121053
0.5663352103408448
0.6602218988596049
0.7713219509261733
0.9125029493805232
1.0862461972835171
1.3534726456399242
1.6490943863033278
1.7007194437126352
1.41953067614594
0.909391619323112
0.5086873567168834
0.2082849310805035
0.2349869325209342
0.2767639581680183
0.3102745691545193
0.3466918673152183
0.3873734618944056
0.4338978446465786
0.4931543089112364
0.5716292430253614
0.6669250144722607
0.7812551836340808
0.9237117022667348
1.0975803923229663
1.3766522890169104
1.680432618605995
1.7182227427732522
1.412379585458622
0.8987561800120832
0.5033383621452157
0.2099330778239347
0.2367613572726593
0.2787743469336788
0.3120245859816189
0.3472987203821481
0.3886773871781053
0.4358377274538725
0.495758228584548
0.5755353444394768
0.6714623200322665
0.786799092918683
0.9326271220855256
1.1136881719650569
1.4006332344175825
1.7048393263841988
1.7288736426627398
1.4071833255766149
0.8946298432372337
0.5028228072575817
0.2121687919043783
0.2385349825391015
0.2799195439189426