/*--------------------------------*- C++ -*----------------------------------*\
| =========                 |                                                 |
| \\      /  F ield         | OpenFOAM: The Open Source CFD Toolbox           |
|  \\    /   O peration     | Version:  2112                                  |
|   \\  /    A nd           | Website:  www.openfoam.com                      |
|    \\/     M anipulation  |                                                 |
\*---------------------------------------------------------------------------*/
FoamFile
{
    version     2.0;
    format      ascii;
    arch        "LSB;label=32;scalar=64";
    class       volSymmTensorField;
    location    "0.0069";
    object      tauij_LES;
}
// * * * * * * * * * * * * * * * * * * * * * * * * * * * * * * * * * * * * * // 
 
dimensions      [0 2 -2 0 0 0 0];
 
internalField   nonuniform List<symmTensor> 
13597
(
( 0.2232361724213722 0.030063517145405 -0.0144989707945587 0.0986704235139725 -0.0092849545341546 0.146537403630911 )
( 0.2260915300956623 0.0315997725405972 -0.0116359268462214 0.0986363076206846 -0.0095722960587168 0.1551877962203983 )
( 0.2320191731064872 0.0349160052161802 -0.0054387546786153 0.0981916265623157 -0.010903084691709 0.1689450898006223 )
( 0.2390462554549111 0.040757101352752 0.0024594954378211 0.0989259762118549 -0.0128171062248536 0.1841499109801142 )
( 0.245651475176712 0.0469469889881977 0.0078972910548885 0.1000464797888694 -0.0141342836157679 0.1932816127441143 )
( 0.2523187079308288 0.0518540046320191 0.0099650283963588 0.1005381363922066 -0.0144687744768652 0.1968614338774711 )
( 0.2579360207116632 0.0576368366949778 0.010672093760597 0.1016284057438493 -0.0146232856918493 0.1970425611092937 )
( 0.2646313856923594 0.0644477015766218 0.0106486701799293 0.1025295552410255 -0.0145185510017812 0.1950207399333108 )
( 0.2717790060000047 0.0712936283353483 0.0094646990067299 0.1031265745641926 -0.0148138988338873 0.1910051804829813 )
( 0.2781053188255541 0.0785966522310595 0.0069834356771009 0.1038666807812434 -0.015151476962531 0.1849716352718806 )
( 0.2862629205875844 0.0865009779391015 0.0033067718064279 0.1042162755782598 -0.0153716544853684 0.1785287013187963 )
( 0.2938593482799243 0.0944193005498026 -0.0006557555206436 0.1047244619886856 -0.0163332379530081 0.1718081881298538 )
( 0.3017375333359935 0.1018534916534398 -0.0044966448774389 0.1045585458252007 -0.0171947973651479 0.1640934665965929 )
( 0.3105384467095158 0.1088802446179455 -0.00878972224638 0.1038645618224164 -0.0182507079066253 0.155854519093232 )
( 0.3182865172167074 0.1148338648175452 -0.0129314249054957 0.1027308153963962 -0.0192982589272117 0.1475004658570713 )
( 0.3269664164474945 0.1201461359721571 -0.0163091462082886 0.1011659903791336 -0.0200506800791909 0.1397720936026504 )
( 0.3364721868851882 0.12516489132838 -0.0180243584859899 0.0989929760785244 -0.0201203470350413 0.1323463600774872 )
( 0.3453049089154679 0.1281512189115786 -0.018728285330783 0.0954096178817325 -0.0196737950679331 0.1251356481471628 )
( 0.3532822539575113 0.1303002495803481 -0.0192647113716304 0.0918933497281543 -0.0193864875151421 0.1184411193970415 )
( 0.2339227945426042 0.0325264267270289 -0.0233179610858558 0.1035621860702377 -0.0009298792437834 0.181676117859167 )
( 0.2387357770728141 0.0346078895552822 -0.0206830268760133 0.1046956136528877 0.0001500807621048 0.193665865278399 )
( 0.2449194896520201 0.0394647776721554 -0.0143219927312151 0.1070129861305988 0.0005998061865314 0.2071115853153694 )
( 0.2524689216581673 0.0471526576275319 -0.0085555345774247 0.1119332970350335 0.0006582754963828 0.2190178144711151 )
( 0.2593826609363183 0.0541115501149661 -0.0060522610181726 0.115411302275183 0.0011691824168362 0.2223035843624326 )
( 0.2655006818240981 0.0608393524859033 -0.0052147396550566 0.1177686084793679 0.0015042688313059 0.221507084534067 )
( 0.2710170390066613 0.0683734598873875 -0.0052933967250816 0.1199388948609417 0.0014302626782908 0.218234570991502 )
( 0.2772594978005698 0.076987003693229 -0.0061340349687273 0.1220815929008203 0.0015833318068798 0.213366505218881 )
( 0.284594125216498 0.0859102302460732 -0.0075689359707477 0.1238960134502242 0.0008772528415073 0.2081296096419607 )
( 0.2917996836922465 0.0947503491351621 -0.0088781561266463 0.1243949891669754 -0.0004516558777468 0.2018544591081115 )
( 0.3000745185416452 0.1042116097038005 -0.0104215712144641 0.1245723650059082 -0.0020136853999094 0.1955701318338409 )
( 0.307456799207505 0.1138819570410177 -0.0109480584653105 0.1248338745177681 -0.0039073028379451 0.1896190176512969 )
( 0.3149485926976778 0.1221449354772487 -0.0104180444606999 0.1240664218628393 -0.0060143373112929 0.1839869331854517 )
( 0.3230074057247385 0.1287057172246515 -0.0093245745832233 0.1219579631345593 -0.0082939184542486 0.1792176794065501 )
( 0.3304343824865028 0.1340936765893371 -0.0069951766782352 0.1194261023142415 -0.0098073976492832 0.1749630704515769 )
( 0.336145540959069 0.1384297140294313 -0.0041209350929231 0.11715211088985 -0.0109584520119244 0.1708999190882345 )
( 0.3404939968187007 0.1414910085140252 -0.0002969156053102 0.1148201682241343 -0.0115313714899759 0.1672561008433436 )
( 0.3455945376250164 0.1425936694343107 0.0047188408372474 0.1116594298853897 -0.0115202820667229 0.1644419306181744 )
( 0.349833610420054 0.1423507692754022 0.0092258724945315 0.1084358141294413 -0.0114827546762523 0.1624861607443527 )
( 0.2393013038186358 0.0389809110963748 -0.0310572385675052 0.1089087075791173 0.0057306562392035 0.2160099044035663 )
( 0.242585005936949 0.0426772250176037 -0.0283633588175295 0.112224024220852 0.0082649399302874 0.2276598798692052 )
( 0.2456642731687629 0.0493336529084732 -0.021188975090563 0.118358615216355 0.0109193476710261 0.2348332026873854 )
( 0.2501725130013208 0.0591517393398801 -0.015500239749438 0.1269565286611843 0.0131490999196506 0.2368290504056022 )
( 0.2554720210081925 0.0683233944161254 -0.0127697744426524 0.1333563908779104 0.015243306747132 0.2330254921328273 )
( 0.2615556597967933 0.0771636398175028 -0.0109199023555506 0.1385482911236077 0.0159281707698363 0.2271332127728685 )
( 0.2672445254407914 0.0867526801792773 -0.009196988270557 0.1425797003181688 0.0156089864153032 0.219961631102019 )
( 0.273040602733938 0.0973519093901034 -0.0079300231783011 0.1463197122968231 0.0152632343886233 0.2132426812246212 )
( 0.2805466149434507 0.1077362300002495 -0.0067019384000856 0.1492626592723572 0.013799979139227 0.2074671995528344 )
( 0.288830839059263 0.117689171350284 -0.0041675029883643 0.1504016967161991 0.0115153228779096 0.2025177663081989 )
( 0.2964583418405925 0.1268328972568989 -0.001349760523728 0.1504944341787517 0.0088886292215044 0.198610500578111 )
( 0.304295799400103 0.1349361825716738 0.0024934774682711 0.1502557808662428 0.0066000616235903 0.1961151253178377 )
( 0.31247425234211 0.1408229349175605 0.0075605536714873 0.149245709718704 0.0044219326089933 0.1945644399361972 )
( 0.3187878282833897 0.1441814185143318 0.0127512894793738 0.1469763152570816 0.0027692422997218 0.1931987789221577 )
( 0.3237475100613027 0.1461328312887841 0.0181630344941057 0.1442518446295323 0.002611242072006 0.1927670466935743 )
( 0.3266465222906693 0.1466953344456281 0.0228231422320244 0.1418192011554439 0.002800926013762 0.1923389235216313 )
( 0.3278512760213956 0.1458775762303313 0.0271909765715935 0.1394120863730809 0.0034478766814291 0.1917304347264646 )
( 0.3291268617063263 0.1440884530552528 0.031789330078837 0.1368835578262815 0.0048097113680343 0.1911500252240215 )
( 0.3295299784359221 0.1415254478184148 0.0356743006162904 0.1337849480215342 0.0062906233611673 0.1897963676618873 )
( 0.2346194495915206 0.048673328656968 -0.0349139369553571 0.1147450614134485 0.0114465905828008 0.2427136997486133 )
( 0.2334662629961165 0.0546450220220691 -0.0299101425739161 0.1213858054278428 0.0158490954389725 0.2499337003946319 )
( 0.2333791308212685 0.063470211914132 -0.0211340713713366 0.1320339054550265 0.0212026209795301 0.2464632335048522 )
( 0.2364249105522256 0.0761856301529639 -0.0141025222247948 0.1450510315102272 0.0250557782283819 0.2381690846514023 )
( 0.2411502789123231 0.0885523454814194 -0.009443519971301 0.1547926547215893 0.0271968819400513 0.2302346616693592 )
( 0.2469456722346273 0.0998167848359123 -0.0059708052567765 0.1624034153815961 0.0272197254328557 0.2223106350736415 )
( 0.2534908148248712 0.1112280187329225 -0.0026071880432816 0.1687420665313332 0.0258687293539716 0.2152238979577064 )
( 0.2603698056873145 0.1223669776361562 0.0007396741278614 0.1733039136155779 0.0243440411769313 0.2108896189636084 )
( 0.2681916081060598 0.1318723486254975 0.0040510931840737 0.1758574981550219 0.0219173430791603 0.2077271127908043 )
( 0.2752743844354196 0.1401184792867747 0.007739002684551 0.1773418009369771 0.019198948185914 0.2057317545722523 )
( 0.280490319175679 0.1464778567692497 0.0122219866940898 0.1773436608967802 0.0169785419796463 0.203965758675929 )
( 0.2871691916491559 0.1505827966669156 0.0172778397730482 0.1755267151414087 0.0158789351923239 0.2028439770362596 )
( 0.2932056937694961 0.1526447620182815 0.0230773936351843 0.1728918661552394 0.0161142551484918 0.2022426300633273 )
( 0.2965426401214394 0.1529125359058515 0.0283910895438556 0.1702659571299525 0.0175237391097449 0.2013418761691869 )
( 0.2980303679675492 0.152290115004151 0.0325037937141087 0.16779319443135 0.0198468032687508 0.2006623722854944 )
( 0.2984616290414128 0.1513211801130235 0.0357078069772058 0.165790798556927 0.022456927279109 0.1999096618008187 )
( 0.2985738662625827 0.1498054567703837 0.038216271712104 0.1638110946260501 0.0249631269183982 0.1985333556549795 )
( 0.2984572793011439 0.1481197105808905 0.0401176299649167 0.1620237659800271 0.0278272645005072 0.196984940319474 )
( 0.2984228774981392 0.1462985485806778 0.0409950029359894 0.1599336957079918 0.0307414457711496 0.1951011696933365 )
( 0.2211076062194386 0.0598372261428192 -0.0321710309041899 0.1231718911500375 0.017718642403499 0.2586431873659516 )
( 0.2168926259691681 0.0680125904340366 -0.023591146055175 0.1325508413360015 0.0240026789704152 0.256179948343216 )
( 0.2168806880666937 0.080350997527552 -0.0135811705926454 0.14786239943204 0.0308875704944513 0.2442879630065931 )
( 0.2205329747539552 0.0958937961729815 -0.0057716319486791 0.1644389900723387 0.0348164500270787 0.2328497548771072 )
( 0.2252119053391474 0.1098201115369802 -0.0004811508184839 0.1759219767292348 0.0356445577678314 0.2243466807841727 )
( 0.2303716929452218 0.1222064356759008 0.0030862198980417 0.1850926940127619 0.0344996751244942 0.2177978392884233 )
( 0.2358622993758596 0.1328842340865991 0.0065420740474788 0.1915601988091383 0.0318772296386547 0.2128212742900347 )
( 0.2416983222136955 0.1422645873735424 0.0096127596061135 0.1963149524798544 0.0289934049407312 0.2088194673430929 )
( 0.2469760540252251 0.1494651074525596 0.0133833748555222 0.1987832444863243 0.0268919083372041 0.2063956622613638 )
( 0.2508543449615005 0.1541925137098742 0.0170565270321215 0.1996913870059153 0.0254303290230119 0.2047945525007194 )
( 0.2551094132392741 0.1576103374356431 0.0211110575991683 0.1996528925009769 0.0255440893678891 0.2031124927539562 )
( 0.2601332372723937 0.1592690683980723 0.0258956732833069 0.1976912192874359 0.0275328243120187 0.2015993555607318 )
( 0.2635708112682673 0.1596388547285211 0.030466562320739 0.1953644536519926 0.03110824824182 0.1999962386798073 )
( 0.2657577357255625 0.159657123732851 0.0341469977827956 0.193730367521317 0.035515647672242 0.1987311587191608 )
( 0.2670004692038165 0.1597790742735053 0.0362723817714421 0.1930261633250115 0.0397044644816637 0.197274807535191 )
( 0.2676036390889149 0.1599651940901183 0.0373530407864255 0.1930834593837076 0.043656204719156 0.1958750477683648 )
( 0.2682770572085899 0.1601372016776367 0.037578793669321 0.1928222215509737 0.0471397356034431 0.1941443294421181 )
( 0.2697267371930722 0.1608835991815745 0.0373771639869885 0.1925809536059976 0.0506046088124534 0.1927370800901744 )
( 0.272183720451316 0.1618285480052966 0.0363948562327499 0.1920722641431886 0.0537648543044516 0.1915976430397325 )
( 0.202890624653902 0.0713208971874146 -0.0233550898750942 0.1330810751809644 0.0246606264997156 0.2623159617660307 )
( 0.1971399613908542 0.0819308110210008 -0.0127410539665438 0.1456117262115268 0.0324460251032413 0.2524237637943634 )
( 0.19910150114471 0.0981494481081653 -0.002602852785501 0.1651604254608584 0.0390580832086468 0.2363452648554023 )
( 0.204458631486901 0.1150095741345545 0.004035984375083 0.1836541036739384 0.04113497431068 0.2254060274340705 )
( 0.2093677733090203 0.1279649985482602 0.0082670069408882 0.1950417199011932 0.0400514096374048 0.2178210902761277 )
( 0.2147288923309609 0.1387638257619787 0.0111787777055504 0.2042442480684447 0.0377594490975857 0.2122061399515882 )
( 0.2182913525745745 0.1470566215118883 0.0134816308927992 0.210760276093204 0.0347256683062227 0.2076920082377656 )
( 0.2218926168826888 0.1536498804833928 0.0153748012055414 0.2161497506343999 0.0320292066917298 0.2027408653694551 )
( 0.2247571613640292 0.1585502741233214 0.0188531282281868 0.2194899230542081 0.0315508042433789 0.199051098490181 )
( 0.2266986160768277 0.1614816687290935 0.0226136152171367 0.22070906226674 0.0330349645082852 0.1963556120517546 )
( 0.229988404573832 0.163737507509874 0.0259162377037902 0.2210694513428133 0.0362334426426094 0.1940696685381791 )
( 0.2326462096618416 0.1651641916322772 0.0290492213971243 0.2207198604828991 0.0407824076714354 0.1918906422022982 )
( 0.2350490142114683 0.1665499156156244 0.0319132731872381 0.2205419910715062 0.0466289659095995 0.1898226843641152 )
( 0.2386806095384422 0.1688157192148029 0.0340026473923991 0.2208802840673497 0.0521765549747169 0.1881042800746186 )
( 0.2418694859096551 0.171416537505102 0.0350412494834507 0.2223571904467753 0.0569003123411354 0.1869856422872369 )
( 0.2446318402992107 0.1740100777358775 0.0352476615101932 0.2240793602452623 0.0609117866433782 0.1862655034787267 )
( 0.2479218334380042 0.1769095455620089 0.0348242100253327 0.2256223630248662 0.0642160738438112 0.1859121796622639 )
( 0.2528350218410481 0.1806490683736836 0.0341809877827191 0.2269551741781528 0.0669743992732742 0.1858331475852285 )
( 0.2595731805037019 0.1846494674518128 0.0329773068246054 0.2272681253389284 0.0690414045756735 0.186473640744861 )
( 0.1827216264540513 0.0832798442881405 -0.0101165051712383 0.1442099300502858 0.0321660244887834 0.2579114676098315 )
( 0.1789319014990862 0.0956868167054627 0.0011637178620581 0.1597716340147592 0.0403343249350111 0.2451844854766485 )
( 0.1839521436825216 0.1130500498881621 0.008935949990388 0.181381279703257 0.0451604495076778 0.2291231080989993 )
( 0.1901739183266037 0.1291442187262586 0.0122764190076665 0.2005213842378766 0.0443822511200833 0.2183591032867741 )
( 0.1948490856185317 0.1400299883909842 0.0144469572470053 0.2124316562603781 0.041579631328582 0.2106506825146203 )
( 0.1990880267256112 0.1482423991747792 0.0166988475860001 0.221483298032078 0.0386220950589221 0.2043539052020971 )
( 0.2011997895758134 0.1543475891149138 0.0180717908061965 0.2289234211753325 0.0361855823244284 0.1981045402330922 )
( 0.2022249033070711 0.1583606851872739 0.0194357242658145 0.2346987191980631 0.0356615946608903 0.1920842543408366 )
( 0.2028145743147237 0.16170204987187 0.0223413231820328 0.2390918320008467 0.0380054712806479 0.18696951297431 )
( 0.2044993233269093 0.1648668220456411 0.0252443678084582 0.2419145845140649 0.042241345016653 0.1828314687886146 )
( 0.2069232301990573 0.1678305732932586 0.0274973526216246 0.2441666396607132 0.0476268487519871 0.1792662411779158 )
( 0.2099085876048437 0.1712993494995734 0.0298290909734945 0.2464780424206373 0.0539978135935198 0.1774900706133207 )
( 0.2145972117343467 0.1755498409766397 0.0317276569707957 0.2488125202648354 0.0600624364842471 0.1771076416233127 )
( 0.2208641842790145 0.1808861338703319 0.0330708485741737 0.2518634217658925 0.0652241638297973 0.1768278446558754 )
( 0.2279434302237883 0.186672767638179 0.0340726914458959 0.2550505380893914 0.0695104855610255 0.1774505188130906 )
( 0.2348329683186107 0.1924257040296914 0.0344653603592574 0.258147442113597 0.0727058823675518 0.1784222072019581 )
( 0.242208062827385 0.1983994187076199 0.0345434856400921 0.2613136272702956 0.075084998399989 0.1796680559823245 )
( 0.2514767110877108 0.2050893781588324 0.0342804578456282 0.2638085793532013 0.0765867397237658 0.181386131685315 )
( 0.2630049423975585 0.2122589954484782 0.0335270035898304 0.2648560038011392 0.0771809327311714 0.1836026286123712 )
( 0.1663161769699113 0.0939803928975764 0.0043815220504795 0.1560509346893371 0.0392571563929341 0.2510035375632266 )
( 0.1662500939126324 0.1073110922819621 0.0145975504298674 0.1734692842257904 0.0462983071894506 0.2369768409867435 )
( 0.1739139269063802 0.1241334281899336 0.0187551541818773 0.1956668670457147 0.0486944555146298 0.2222108251008253 )
( 0.1800421373062907 0.1374190486577591 0.0190866555007593 0.2146497610077684 0.0457541252543071 0.2112399572422017 )
( 0.1827815337268403 0.1455707848790167 0.0192707646270193 0.2275497223700109 0.0420270837880914 0.2018757373967694 )
( 0.1842095736828774 0.1511191289773671 0.0195369668789471 0.2378493613151491 0.0389793304737822 0.1935346774094074 )
( 0.1842116543653456 0.1552537728663106 0.0205579952059461 0.245298390817104 0.0385093192983262 0.1851024539322607 )
( 0.1833342264215945 0.1582473416492122 0.0218582912797564 0.2521196811738295 0.0408981945623344 0.1780740087681261 )
( 0.1826736786762069 0.161417250472149 0.0236519993244667 0.2596184634925365 0.0453767818956939 0.1721958530960565 )
( 0.1849967426071282 0.1663757637289065 0.0259775431566833 0.26493439347927 0.0513793509969742 0.1675135349371339 )
( 0.1888229604450166 0.1720266590864216 0.0280954633327102 0.2700434296015612 0.0581721241020953 0.1647664591857241 )
( 0.1950944673249216 0.1791282630936111 0.0307793369113605 0.27550504767583 0.0653542105123959 0.1653989913721508 )
( 0.2046790930698948 0.1875758892030516 0.0325618260562899 0.2805293331893566 0.0706771828692361 0.1672648525253206 )
( 0.2150651562905413 0.1962565996124288 0.0336149077315168 0.2858079250700449 0.0744008017267731 0.169096790880758 )
( 0.2256407959979156 0.204949664362113 0.034774070827253 0.2905061649928231 0.0773664713473619 0.1714179642867166 )
( 0.2365338659522214 0.2140627536357552 0.0356197247563751 0.2955376218973303 0.0792866045144009 0.1737332187841903 )
( 0.2481820526533623 0.2234010502040521 0.0363410164699822 0.300155268157467 0.0804721821403985 0.1762704583137585 )
( 0.2615313438406754 0.2331819309946919 0.0366943167973804 0.303528931781267 0.0807536683346553 0.1794550983469335 )
( 0.2769334897123525 0.2433295931421578 0.0366202137368419 0.3051188958004036 0.0800398409999131 0.1826368535089273 )
( 0.154848291036551 0.1021395196706624 0.0183408416624325 0.167204209309418 0.0448730687068329 0.2437214409665734 )
( 0.1581808003659543 0.1152284452694013 0.0258064565938766 0.1858036024675262 0.0501060810745168 0.2296195805060777 )
( 0.1671246894607706 0.1304562848207179 0.0258184335955819 0.2089222402502035 0.0498562856944743 0.2146845874157693 )
( 0.171993826938454 0.1406008966057761 0.02363301668895 0.2279452512675502 0.045685204170203 0.2020064338261569 )
( 0.1723698717796512 0.1459213028114334 0.0221382269013877 0.2413437873629818 0.0423339915791196 0.1902044297492988 )
( 0.1704947049466741 0.1489925755519439 0.0209126812633423 0.2529911332741855 0.0408105672349564 0.1801564537624349 )
( 0.1679893425137878 0.1518598909571422 0.0210281199945732 0.2618453835020309 0.0425248252626492 0.1703757692550457 )
( 0.166680593059819 0.1556476334976567 0.0222572827956948 0.2713548775328512 0.0468092726548271 0.1627219360514516 )
( 0.166566750658636 0.1601844045120185 0.0237826004323138 0.2817223615122703 0.0525653084983824 0.1576748877824039 )
( 0.1707082099827952 0.1678025146958098 0.0260590093994592 0.2901740634440168 0.0596600669015156 0.1543450650470724 )
( 0.1787574912605992 0.1776709648955153 0.0284967253470154 0.2982668049766733 0.066512282134738 0.1540576276661593 )
( 0.1893083077388617 0.1888625070511531 0.0313995335041231 0.3067830712764645 0.0729373614861681 0.157161033340173 )
( 0.2033800093979106 0.2020895650725126 0.0340062780705782 0.315235300575673 0.0777508900726785 0.1604665820291662 )
( 0.2177621405451346 0.2145724559587949 0.0355802159321317 0.3228213985061453 0.0803177666448062 0.1640949487767998 )
( 0.2308867842287849 0.2257279570138828 0.0370000010353733 0.3292920533718081 0.081826734514223 0.1679891108981227 )
( 0.245003284357882 0.2381595123184202 0.0384379457653693 0.3363544858303237 0.0826981909312128 0.1714865028221897 )
( 0.260210251032169 0.2509226789990235 0.03952615457863 0.3425206967315098 0.0826411983523983 0.174799180026768 )
( 0.2774651042204629 0.2641314026962862 0.0404624938926959 0.3468610805917219 0.081705035564043 0.1783962568715282 )
( 0.2970953960804122 0.2778737855988097 0.0408968851608542 0.3489778537514982 0.079732219935871 0.1821444581986029 )
( 0.1502730557620488 0.1079689544452261 0.0309368905487117 0.178527921669969 0.0494622103121438 0.2380968743132398 )
( 0.1566138220833388 0.1197612171556963 0.0343766173963414 0.1977888601623633 0.0522654999345934 0.2231779407800481 )
( 0.1629298700691244 0.1320399055201151 0.0296267039948645 0.221636430156122 0.049262328546614 0.2055968758124295 )
( 0.1642928127387314 0.1387796956815288 0.0251311036915841 0.2406591932431508 0.0448321501465549 0.1906440146394719 )
( 0.1619439595842205 0.1419786340850587 0.0225036547651459 0.2549443025487177 0.0428378756034565 0.17753403096002 )
( 0.1578355134157406 0.1440128080825657 0.0213587415771505 0.2675555600379502 0.0435008788105241 0.1661968453101908 )
( 0.1539333523701335 0.146621234287018 0.020800864603649 0.2797525214083914 0.0467833985368471 0.1552995384230631 )
( 0.1526245064754022 0.1518447321202462 0.0217629739931154 0.2933117981332295 0.0528058498488345 0.147764178732541 )
( 0.1549070191965566 0.1595106339304561 0.0239633490819144 0.3061519033374048 0.0598382690901703 0.1444257884243296 )
( 0.16216666410666 0.170569218442607 0.0263543664414142 0.317982438805092 0.0668461889754748 0.1437902132533305 )
( 0.1746857825268418 0.1849863266216742 0.0292549487011292 0.3291155931929311 0.0731000762225182 0.1465815187254054 )
( 0.189875599769493 0.2007332418762032 0.0325018318149337 0.3399628233245705 0.0781933598427261 0.1517911373028715 )
( 0.2063730976088778 0.2172842487495642 0.0357090573808846 0.3512189626277414 0.082050525059614 0.1567892336104892 )
( 0.2233086118277467 0.2332574467534101 0.0381319598727511 0.3613726738728468 0.0838767007572669 0.1618448668078455 )
( 0.2400415113435362 0.2486462494605179 0.0402230160882084 0.3708478421670514 0.084402312946514 0.1662102055229336 )
( 0.2573471517306578 0.2647255955642189 0.0420383139907609 0.3804130332343471 0.084107393982966 0.1701391538881038 )
( 0.275890949495279 0.2812195214927722 0.0432612402800508 0.3888510405628465 0.0826971761807744 0.1737823036070696 )
( 0.2972061490980892 0.2984136932621135 0.0442964423788405 0.3947239548198452 0.0804197922843723 0.1771677401072593 )
( 0.3217532430440712 0.3161923626367302 0.0447538786016973 0.3973630119418284 0.0772009085442596 0.1808935770840818 )
( 0.1519676260655127 0.1110873691874329 0.0406273528816786 0.1878060983657584 0.0521778611833531 0.2336115788890001 )
( 0.1577391258148873 0.120651235560614 0.0391420116474292 0.2073099534503814 0.0523555250418223 0.2163615100648021 )
( 0.1600295528807972 0.12988228115405 0.0308317455615354 0.2327304046752472 0.0482538245062746 0.1953112205351897 )
( 0.1570213335305273 0.1332731351668187 0.0248462973953083 0.2523493174187706 0.0446912180477504 0.1782891214979929 )
( 0.1512468905421645 0.1348520293132136 0.0216925610093976 0.2680784077674498 0.0440533619370165 0.1638545028966358 )
( 0.146080544351887 0.1370230167240584 0.0202947828329305 0.2831531469896894 0.0465074932025202 0.1511115519021531 )
( 0.1430472519715712 0.1409826730227785 0.0200524083753076 0.2990422308945222 0.0515059687767384 0.1411455467763877 )
( 0.1430340863679948 0.148095887119598 0.0212946624353973 0.3157515315338153 0.0587901628645043 0.1360677896273082 )
( 0.1480216200372324 0.1590784926434568 0.0238227604794229 0.3318969401223676 0.0662386772193776 0.134855792336151 )
( 0.1581150201501172 0.1741987741086882 0.026767940552899 0.3475635644902977 0.0725762867411842 0.1368845366950873 )
( 0.1734197283144385 0.1929050386318302 0.0304136750413065 0.3621053247693625 0.0779068877621294 0.1420123647036345 )
( 0.1927331447147943 0.2138394375095956 0.0344859561217184 0.3760553967407444 0.0820642856782163 0.1485915163826959 )
( 0.2117619208452449 0.2338345703424628 0.0379690530957516 0.3896127918929116 0.0846313701062204 0.154817333948085 )
( 0.2310695522888018 0.2532085663547597 0.0408359243780834 0.4020987344725542 0.0854789495936897 0.1604534509836848 )
( 0.2513857832889939 0.2734659123764432 0.0433348978261323 0.4151997155215149 0.0851725039751465 0.1649505640256503 )
( 0.2718543145982022 0.2936153308804058 0.0451429244305343 0.4282223687271487 0.0835600852147735 0.1688031913710832 )
( 0.2944508894473184 0.3145108395824207 0.0466028306996899 0.4394520451408593 0.0810519821902038 0.1723794546028079 )
( 0.3201538418297259 0.3361219988564445 0.0476482421567274 0.447138649253392 0.0779737190784048 0.1758335138655468 )
( 0.350145642141302 0.3586422366868146 0.0476477791528713 0.4509142851287927 0.0738773967753024 0.1797333702375113 )
( 0.1550384686277856 0.1107695835507481 0.0467023581661501 0.196204027598713 0.0528693704912011 0.2282090004805805 )
( 0.158138769728652 0.1176422609772708 0.0408034469751075 0.2165321182738672 0.0511769573690113 0.2077342828475993 )
( 0.1559889741160825 0.1241513064158073 0.0304095888115007 0.2432212684184573 0.0471800273654831 0.1844716101760354 )
( 0.14923580174653 0.1253608298756627 0.0239096255839072 0.2634359729067575 0.0450254661126971 0.1660925861316534 )
( 0.1418563578152981 0.1264417659015476 0.0204438030892733 0.2813018575156472 0.0460986404841829 0.1503971668478973 )
( 0.1365733990171571 0.1293654715996817 0.018605890539275 0.2998310047190834 0.0502911399162685 0.1377482406443622 )
( 0.1350685750691364 0.1356680330970731 0.0187818370422224 0.3189563190025639 0.0565532542109756 0.1302921626447146 )
( 0.1372847034845016 0.1460150287463671 0.0206542529605557 0.3391751820437643 0.0640904912826587 0.1275855539570484 )
( 0.1445472529856251 0.160480418325152 0.0237243013627184 0.3588752879978655 0.071076939043261 0.1282580940829938 )
( 0.1571813886371146 0.17947614480112 0.0275567866078472 0.3779667091167543 0.0767572252900784 0.1324326109463875 )
( 0.1745169848785554 0.2019895248113521 0.0318476223591737 0.3961759319544949 0.0812364766959141 0.1393281415938061 )
( 0.1960287591521218 0.2271990430872431 0.0364427241517081 0.4143440010284275 0.0844496868056576 0.146685149284513 )
( 0.2182257977130105 0.2519012385255886 0.040319183760793 0.4314293011486587 0.0858459956535103 0.1531895236028751 )
( 0.2408440409305666 0.275934031315667 0.0435355559833732 0.4470093387059488 0.0857052441310527 0.159153907431978 )
( 0.2638739322902482 0.300380042473545 0.04608462939285 0.4639788886193581 0.0845441447593723 0.1639650117173297 )
( 0.2870388855427606 0.3244293434952329 0.0478285442095893 0.480650978023805 0.0821401307596004 0.1677963399620401 )
( 0.3133056652391267 0.3498183168706466 0.0490597043019734 0.4949126400482922 0.0788042245638168 0.171216089395437 )
( 0.3448110197305697 0.377139912826313 0.0498563994056481 0.5050708993523356 0.0751161553664692 0.1748855973345343 )
( 0.3825537561940669 0.4060339701777263 0.0493525330010444 0.5103433056721359 0.0701300875153909 0.1788710501698374 )
( 0.1593246890470611 0.1073166408896756 0.0498671639815339 0.204920679991169 0.0521769123912395 0.2221179492780455 )
( 0.1584302078570321 0.1114146628756989 0.0403916561951391 0.2263487385819305 0.0498807195171694 0.1987737645512785 )
( 0.1509737073673603 0.1156514860449536 0.0287463880075838 0.2531030319694874 0.0466362220575181 0.1740364932432863 )
( 0.1422393701937245 0.1162781816094774 0.0221700473268956 0.27425353134936 0.0455424499112775 0.1546891201321184 )
( 0.1343428809252551 0.1178985108039524 0.0184221956843854 0.2951871879033333 0.048254420984 0.1390791835327377 )
( 0.1297886377208653 0.1226406868320444 0.016861498695803 0.3171859523313915 0.0539256220996153 0.1274253517261658 )
( 0.1295178955862515 0.1314307548950052 0.0176462797568869 0.339834318246338 0.06095103260325 0.1215954051821757 )
( 0.1334473073113784 0.1446235750361023 0.0199425258278728 0.3641500965937872 0.0683685619882646 0.1209562355963881 )
( 0.143013127692476 0.1628786027858871 0.0236061784942283 0.3872584412945801 0.0749065691792663 0.1240127167864943 )
( 0.1577496046730689 0.185778557316456 0.0283454977717604 0.4088813500510072 0.0799404613125526 0.1297359747281804 )
( 0.1773090029027721 0.2127546396304466 0.033417093093422 0.4314051541037377 0.0837626019093249 0.1377358501622299 )
( 0.2003105659559768 0.241705227470825 0.0383163329619469 0.4535529848780238 0.0859589830086755 0.1459371799043185 )
( 0.2245558080188278 0.2705502980802876 0.0423058402461251 0.4752517802014006 0.0861238314742258 0.152614753853737 )
( 0.250235731969908 0.2998277634255196 0.0456551371219507 0.4963511208889442 0.0850939677380188 0.158515827075678 )
( 0.2752652291502431 0.3281340602492493 0.048365100944999 0.5178547244553573 0.0834716220263651 0.1631172210730832 )
( 0.301557238727038 0.3566593681295495 0.0500134531194746 0.53819848838913 0.0806883667880263 0.1667389971565005 )
( 0.3329568146724913 0.3882207764600918 0.0507183126642477 0.5566710714961579 0.0766139079456072 0.1702840619365502 )
( 0.3714072456287173 0.42251624437602 0.0509195177507952 0.5706360360843403 0.0720175184722941 0.1740588490494315 )
( 0.4186842056474645 0.4582892877121809 0.0500433174481774 0.5757632867988528 0.0660261592824097 0.1779452423070442 )