/*--------------------------------*- C++ -*----------------------------------*\
| =========                 |                                                 |
| \\      /  F ield         | OpenFOAM: The Open Source CFD Toolbox           |
|  \\    /   O peration     | Version:  2112                                  |
|   \\  /    A nd           | Website:  www.openfoam.com                      |
|    \\/     M anipulation  |                                                 |
\*---------------------------------------------------------------------------*/
FoamFile
{
    version     2.0;
    format      ascii;
    arch        "LSB;label=32;scalar=64";
    class       volVectorField;
    location    "0.0069";
    object      U_LES;
}
// * * * * * * * * * * * * * * * * * * * * * * * * * * * * * * * * * * * * * // 
 
dimensions      [0 1 -1 0 0 0 0];
 
internalField   nonuniform List<vector> 
13597
(
( 17.750098296110025 1.977060360086322 0.0904630835316799 )
( 17.757834783143178 2.0223004663442223 0.0950407368407012 )
( 17.785128604837062 2.112930550472323 0.1022348913872354 )
( 17.825027015858627 2.2295714286754618 0.1091905035445435 )
( 17.859389792402734 2.328655417655734 0.1136962995644931 )
( 17.88464907164511 2.409389996036573 0.1152770450177688 )
( 17.91179192265754 2.4902688409305647 0.1145016211212096 )
( 17.943497817695807 2.5762839420925028 0.1138310951037126 )
( 17.977626675526796 2.66218741353814 0.1116485631701404 )
( 18.011967356688256 2.748882066892012 0.1075381579210767 )
( 18.049088767994263 2.844473145476244 0.1030984719715901 )
( 18.08995610403946 2.94008807246166 0.0977917270790174 )
( 18.133906929633557 3.0340985903593483 0.091971982667914 )
( 18.17834917872603 3.1325412293845067 0.0865341353212876 )
( 18.22070712283068 3.23240664764406 0.0818102096975052 )
( 18.26561721078025 3.330536314492632 0.0781534982816271 )
( 18.31435786338793 3.424524378857692 0.0758019637664522 )
( 18.36357918247398 3.5172079148262623 0.0735941748376934 )
( 18.413032562332543 3.61301975834574 0.0708944475234794 )
( 17.63205149798267 2.02122272609746 0.1009200574547672 )
( 17.62480673394987 2.079386047148476 0.1040283274791566 )
( 17.632791392086997 2.199213026014099 0.1060734863563413 )
( 17.645267940273797 2.3370056226448823 0.1048642808813119 )
( 17.651182532390628 2.443123449987052 0.1021012045871417 )
( 17.653425103748006 2.5408479928269085 0.0984696652152131 )
( 17.65866588852119 2.6400969146031894 0.0935490153771356 )
( 17.66513940429208 2.7439480519661053 0.0885926974393156 )
( 17.675327002983927 2.849115567110183 0.0833685974433514 )
( 17.685480695932323 2.9541506410526024 0.0780713330876015 )
( 17.69561898310275 3.0699796644223403 0.0732512571596275 )
( 17.70402975643101 3.1921524613295813 0.0696885381412287 )
( 17.71153587535211 3.314487031203857 0.0667532005990722 )
( 17.722069420856254 3.438285414460124 0.0648721364487866 )
( 17.733045727861153 3.558090461545106 0.0656836241033007 )
( 17.74458340619227 3.671449068359778 0.0674967461005085 )
( 17.75589936205773 3.775633374684709 0.0700510992417923 )
( 17.767393079420074 3.8808523800865817 0.0738281697449543 )
( 17.783475178948414 3.984589427863744 0.0775358712646302 )
( 17.51312122016275 2.055009020850591 0.102634072981211 )
( 17.484914851347426 2.1239447995666696 0.1022788024073919 )
( 17.465267155123733 2.2639378021130443 0.0974217116846626 )
( 17.444458925098232 2.416238838906049 0.0882972501343697 )
( 17.420589911054908 2.530021286191812 0.0800046204758971 )
( 17.400427803297944 2.6418265725055834 0.0725260106040077 )
( 17.38278018093651 2.757462307219248 0.0664027445103561 )
( 17.35954907629866 2.8741450591733946 0.0617222165177476 )
( 17.340081635467286 2.995219228517128 0.0583248526206812 )
( 17.323231849854345 3.1247285038754717 0.0576639484817437 )
( 17.302699265093796 3.259693271351405 0.0585311841305381 )
( 17.28189147930017 3.402741508288183 0.0618039201830672 )
( 17.26244441299883 3.5488405357451254 0.0669868034890137 )
( 17.245038793664783 3.687321146510723 0.0732128810885177 )
( 17.23066387798293 3.8133557048659568 0.0809111855693191 )
( 17.218044970804417 3.9253123111439487 0.0878303657678537 )
( 17.20281857158935 4.025700086062427 0.0942960339076531 )
( 17.187708276086386 4.126319741484689 0.1013663241717956 )
( 17.18083422383342 4.2299337549316025 0.1082867714556123 )
( 17.38330633415749 2.0760794276165067 0.0998847740476096 )
( 17.330396021543127 2.155476077619109 0.0941966945991287 )
( 17.28261751877424 2.3071519901646584 0.0827186877313379 )
( 17.23047866085725 2.4691118373914125 0.0690449797024926 )
( 17.175777667092753 2.593229343470038 0.0593406431925137 )
( 17.12708173860716 2.7139631684050056 0.0526251067684953 )
( 17.077280015500346 2.842737666521644 0.0486111292280722 )
( 17.02394630687085 2.9732176912342805 0.0488060373284927 )
( 16.978302344712016 3.107793497040758 0.0519513967968134 )
( 16.935439097350113 3.251442890305683 0.0573136832787341 )
( 16.886967622530815 3.4026953063289733 0.0652014375381842 )
( 16.846212490188584 3.5583299321195176 0.0756420301796954 )
( 16.810567987315935 3.712819082723872 0.087124358141306 )
( 16.772135269417788 3.85973834626124 0.0986259955554006 )
( 16.734703989215763 3.985754117688572 0.1086767559221913 )
( 16.69999857218767 4.093867041249453 0.1165159872002097 )
( 16.665910659474534 4.191906866811281 0.1230490872195454 )
( 16.62977232915052 4.291285949484705 0.1284642978199074 )
( 16.598181799749533 4.401157918132401 0.1324868088629895 )
( 17.244051151927994 2.0873627370426635 0.0934759656886841 )
( 17.171161474269468 2.177020867984173 0.0826042960449097 )
( 17.09509183632073 2.340383301125513 0.0667236393738344 )
( 17.01088006130988 2.5056050464570867 0.0535260049919185 )
( 16.928216166014096 2.635119093626185 0.0460793671719904 )
( 16.851145770880297 2.763595091010799 0.0429770021297308 )
( 16.77030703209035 2.901199370846532 0.0442179305668084 )
( 16.690665689953022 3.042186630336096 0.0493151244139295 )
( 16.619774948705654 3.1843723498392724 0.0583682482686788 )
( 16.549959909762936 3.3357061020403167 0.0689246596733672 )
( 16.479847077187845 3.500485977142339 0.0813225122864549 )
( 16.416147676093342 3.6672260230742624 0.0950993150749053 )
( 16.35525681594008 3.8280981871405713 0.108212725769802 )
( 16.292885270369993 3.978304624184551 0.1191160305272898 )
( 16.230341578189435 4.101958319671172 0.1263926347378956 )
( 16.169377853599922 4.21304582077386 0.1312246359855068 )
( 16.11151759129531 4.319068309517967 0.134248748455519 )
( 16.055136618537983 4.425439127041037 0.1356019741518467 )
( 16.00016844064264 4.544509315052715 0.1349980463573262 )
( 17.10147229802394 2.0870667521189694 0.0837567187663563 )
( 17.005727050169664 2.186691565529794 0.0696185676830027 )
( 16.898364555679663 2.363454560495688 0.0519006381674369 )
( 16.786984295636405 2.530919519092693 0.0411418756586126 )
( 16.68166412507275 2.6635270521829724 0.0380997382947477 )
( 16.582311021659375 2.7984798375516675 0.0400948577613122 )
( 16.481182155427483 2.939154880160639 0.0464103236852763 )
( 16.378586610060598 3.084655176740448 0.0553340655989314 )
( 16.277144911902923 3.234633092776646 0.0681142057367438 )
( 16.179134377568328 3.3992151133110964 0.0825796491358431 )
( 16.089207749996003 3.5709983146935977 0.0962520986762064 )
( 15.99811592810736 3.7421076064556607 0.1080239705959464 )
( 15.911119394736543 3.908661083073028 0.1187151923203286 )
( 15.82891439392551 4.0595594382898526 0.1260022750832969 )
( 15.743619365840631 4.186358617385763 0.1290623541288666 )
( 15.663803866957824 4.2983735308879965 0.1299485113973645 )
( 15.585924019040265 4.40680014086739 0.1289546655555291 )
( 15.509024545187808 4.516892229493281 0.1264095748114338 )
( 15.434034842413968 4.640790784332369 0.1220323042542883 )
( 16.948087028371056 2.0794077503001738 0.0719940548493108 )
( 16.830353199994782 2.189613076831764 0.0565396616226024 )
( 16.69820354530459 2.37412208402268 0.0406199279412171 )
( 16.564634768313237 2.5412589627698345 0.0326857606207187 )
( 16.440301730267805 2.676033894324963 0.0336763363555092 )
( 16.317717556641142 2.813985061672937 0.0406600960231861 )
( 16.196077899667557 2.959872592277645 0.0506443501652657 )
( 16.074053315422805 3.110357035575284 0.063086165035495 )
( 15.948580203118835 3.2646927604826352 0.0776975581978089 )
( 15.83366312824255 3.4346856981135154 0.0921253779276897 )
( 15.72128524493118 3.612345346218899 0.1045449171969195 )
( 15.60404091760308 3.790269880557398 0.1138206553127494 )
( 15.495411316536876 3.957166889678738 0.1199351017114896 )
( 15.391945436245775 4.10659590724998 0.1227342269753892 )
( 15.286881557789616 4.238637309570451 0.1224713603408933 )
( 15.187325743096418 4.349996083088832 0.1204701555537852 )
( 15.091392811042429 4.457707395451542 0.1169989064085182 )
( 14.994702600783476 4.573635459737105 0.1116367893049472 )
( 14.900475110646312 4.702198271812557 0.1043856272968344 )
( 16.795091569855003 2.067181198613325 0.0593782962505946 )
( 16.65780548675275 2.1823249650544927 0.0440361831810861 )
( 16.505691830212054 2.3690700616951985 0.0322155593029312 )
( 16.35265454008281 2.536125722962112 0.0289017301534568 )
( 16.207829171741068 2.6744624976156675 0.0333655826886665 )
( 16.065468067104515 2.8173184845457837 0.0429347054308614 )
( 15.923980709231706 2.9680067623889643 0.0566011440125462 )
( 15.784779783241888 3.119008680797505 0.0709209033636182 )
( 15.639706982842943 3.2757427121427583 0.0841554796687911 )
( 15.505582814950095 3.4523532876238283 0.0966347009995502 )
( 15.368975276799269 3.635669734958297 0.10709990792543 )
( 15.232311675121458 3.818727245404242 0.1143404110113707 )
( 15.104707952896067 3.987475179010315 0.1163270070311808 )
( 14.976875703819836 4.132182897114237 0.1147526897697139 )
( 14.857017007531732 4.2584606136970535 0.1115545656241366 )
( 14.739543840464782 4.371607147982123 0.1068938974867316 )
( 14.62495370324912 4.484478384212871 0.1013366517400166 )
( 14.511369661584052 4.607423124139776 0.0942760706335631 )
( 14.400327126365587 4.741924599363532 0.0857567448762017 )
( 16.643849040313825 2.044469747325738 0.0468332477299887 )
( 16.486809549958235 2.160588119870198 0.0330700708682187 )
( 16.316499626295474 2.350424710952767 0.025432921740546 )
( 16.149930722657334 2.517964859774112 0.0267130148335152 )
( 15.986885622511751 2.6616776931587687 0.0351254055676717 )
( 15.830374556975634 2.8056972378942624 0.0467197852976802 )
( 15.67481746518152 2.9544156600021108 0.0615827926540526 )
( 15.520553708145544 3.111944561557745 0.0759436457712607 )
( 15.360390492018112 3.2755863577415605 0.087763719572789 )
( 15.197058236107946 3.4532444814940657 0.0980385707705476 )
( 15.038721609979806 3.640206677426724 0.1051874264966466 )
( 14.887314850140514 3.8237898393373135 0.1094163065252344 )
( 14.737127541468348 3.9942324117408607 0.1088283699941574 )
( 14.589955636970192 4.139438975299282 0.1045864856757742 )
( 14.455625308498885 4.262264978226029 0.0993312601202651 )
( 14.320996693209384 4.379314064516979 0.0927621390339598 )
( 14.187878900816456 4.495805597922801 0.0856750787900129 )
( 14.057191540985656 4.622117416858903 0.0782275293937315 )
( 13.927422893553572 4.762650760855799 0.0697620386762945 )
( 16.49190570800087 2.019263434188774 0.0351683835431023 )
( 16.320170104771073 2.142703024406113 0.0240913436000204 )
( 16.135444121339628 2.333443026904149 0.0202748948284593 )
( 15.956935588139055 2.494603887634792 0.0254783182135896 )
( 15.78364831524998 2.641288567677604 0.0369147921549785 )
( 15.614709317103069 2.7822194304994663 0.0504132431304171 )
( 15.440699012374733 2.9264779701044543 0.0645605178674373 )
( 15.26399502264934 3.0871492907632785 0.0785813386736373 )
( 15.08969420122103 3.252950093066964 0.0899728730522993 )
( 14.909027780595345 3.432482921180962 0.0975426132331714 )
( 14.734013611283382 3.626349394501565 0.1013288959808035 )
( 14.566421130801592 3.8142683356753984 0.1021119775969255 )
( 14.397629833972177 3.982114740071845 0.0996497183820337 )
( 14.23699999044077 4.128574195841207 0.0942066650153417 )
( 14.084624850775002 4.253882580186691 0.0879573296617428 )
( 13.930722172731231 4.371264913767498 0.0809556555928201 )
( 13.776317032768745 4.489460904255213 0.0732048774342821 )
( 13.62692146396845 4.61842721365175 0.0650217083817812 )
( 13.481007818010488 4.766002640135691 0.0558382162933368 )
( 16.352114058957728 1.99323197719268 0.0253662893390634 )
( 16.172461981666228 2.122322149749033 0.0177453654303623 )
( 15.969078155629228 2.3110214547661143 0.0178835262581054 )
( 15.780815888633416 2.4646037264782383 0.0256698127457843 )
( 15.59681058913711 2.608622359574578 0.0385139756107058 )
( 15.411320277849828 2.748758914639147 0.0527628969634548 )
( 15.221540765615384 2.889199320778851 0.0663546621059547 )
( 15.0294810667699 3.044610134123045 0.0798092363149272 )
( 14.838130320625115 3.215910982540834 0.0899651196560036 )
( 14.645503390343348 3.400334220445336 0.0948664708685126 )
( 14.454099044725927 3.5958124150819675 0.0962730548776548 )
( 14.264772488026296 3.79109935804108 0.0949857170847959 )
( 14.08423310007034 3.957711675257884 0.0910367547562244 )
( 13.91045496114972 4.10460378404646 0.0848716000215615 )
( 13.736023837241136 4.233854153255003 0.0778987946229098 )
( 13.559706351920417 4.351436276861854 0.0700705480107431 )
( 13.386696167649337 4.472798273519138 0.0614842740144047 )
( 13.22344447748927 4.607055140448483 0.0524307632488269 )
( 13.062014055083257 4.763422327778183 0.0426448780808945 )
( 16.21826450083049 1.96205184473192 0.0166486464121648 )
( 16.028557654708607 2.093856461943661 0.0123548336359011 )
( 15.812490818393306 2.2816642122297317 0.0167232172794576 )
( 15.615748096864316 2.427576315013519 0.0266897558749211 )
( 15.419799107213978 2.5642540472346416 0.0404304537304488 )
( 15.218963838228026 2.7044639785546063 0.0545467063284193 )
( 15.02129126828058 2.850079401560983 0.0678592322262782 )
( 14.816822976632483 3.0071775522196185 0.0798088142547678 )
( 14.60968628409394 3.180599945943721 0.0876862325221979 )
( 14.402007008497485 3.3649737582241603 0.0908396300032453 )
( 14.19357338853314 3.5586131798267697 0.0907506787174969 )
( 13.98574463476755 3.751555012061563 0.0881938416328157 )
( 13.786953614310391 3.92310547288231 0.0829195130065385 )
( 13.59412731150836 4.0775105501098325 0.0756417352401049 )
( 13.398264911540908 4.2084782246747325 0.0676840933053871 )
( 13.206129767866464 4.324662375148335 0.0589782436287914 )
( 13.022142434157283 4.449247237613069 0.0496327136174467 )
( 12.846153762508283 4.59493145455732 0.0408902365864451 )
( 12.670665603357818 4.762817802371844 0.0326024792747905 )
( 16.087902560356053 1.921899921304356 0.0086049254364483 )
( 15.889790890349095 2.056455294780492 0.0074473252107809 )
( 15.670228476944724 2.2427068321084853 0.0155223015399444 )
( 15.463501425460857 2.3870398395088466 0.0272096704812079 )
( 15.258280380079947 2.524133522675556 0.0418443016288781 )
( 15.047597850322267 2.6640905766897376 0.0563986978180492 )
( 14.83769071153876 2.81039941842557 0.0690110328371402 )
( 14.617200121224656 2.965677861096554 0.078687858315842 )
( 14.394494236070084 3.135195655398901 0.084386523601521 )
( 14.17443917694996 3.3228886023857105 0.0863863454078399 )
( 13.94850811357764 3.523673341334313 0.0853407848037554 )
( 13.724240206118647 3.714522920507241 0.0812601460881397 )
( 13.50280344150764 3.8877799473275134 0.0744494151590086 )
( 13.285193587252708 4.044350376440302 0.0660589749303498 )
( 13.076790202823537 4.171590395973978 0.0576129931995948 )
( 12.87855881506387 4.291061868718812 0.0492551343195406 )
( 12.683158691397797 4.424635878136612 0.0406220583480317 )
( 12.489813109090369 4.579940151455249 0.0333994445993326 )
( 12.292887913342929 4.762118660865365 0.0279869205562189 )
( 15.96816566560348 1.8726888711462748 0.0028513109651115 )
( 15.768941391222556 2.0096651464576163 0.0052425631878031 )
( 15.540370489986268 2.195862040707872 0.0154675358692137 )
( 15.3247270903762 2.339759333064965 0.0277371525100498 )
( 15.108674215691856 2.477767556822664 0.0431100516161465 )
( 14.89132991377108 2.614026934482476 0.0578776464158762 )
( 14.669288024161276 2.758014959484808 0.06917811730434 )
( 14.44044994615139 2.9121611158783214 0.0766100888645426 )
( 14.201896702614778 3.0802369719389184 0.080564045150022 )
( 13.962623667863982 3.271011074496024 0.0818252126628445 )
( 13.718571327010554 3.476461876971808 0.0793315053391626 )
( 13.473125392989084 3.674536125349377 0.0739433028588518 )
( 13.233897250984992 3.852005947407255 0.0666579916715739 )
( 13.002775530284392 4.00230172109097 0.057754415173302 )
( 12.78293111176202 4.128924037534927 0.0491997625990777 )
( 12.569916039100708 4.259321276057616 0.0416671502943164 )
( 12.359808520618603 4.407916721168008 0.0348940165039406 )
( 12.142928870251987 4.56811710572649 0.0299508152557182 )
( 11.915761326258664 4.757541200382492 0.0265081326667849 )
( 15.861302434342386 1.823288899300667 -0.001422080151305 )
( 15.656404414649396 1.9624925659846209 0.004241074717903 )
( 15.410208586201144 2.151056287802799 0.016280636263319 )
( 15.186775413315958 2.2881812351023543 0.0294479691119075 )
( 14.965886728987003 2.4215583045833577 0.0449523295931841 )
( 14.743768782406809 2.5559899489673827 0.0581983054656739 )
( 14.510106390879596 2.697755893643301 0.0676786064211248 )
( 14.267837152432907 2.8546265459293694 0.074047229979106 )
( 14.018655646526776 3.023072030470094 0.0775498083650377 )
( 13.76280389358926 3.211866398820532 0.0777539276075357 )
( 13.497113957518518 3.421059031277275 0.0735234411039926 )
( 13.229110072636226 3.622660400974361 0.0670570806273583 )
( 12.972442360214178 3.805270398315898 0.0593640297578437 )
( 12.733032400768115 3.955177227806 0.0504607056838897 )
( 12.503672035464074 4.085516000690511 0.0427869611955245 )
( 12.274919760411052 4.224963621461229 0.0363709146305401 )
( 12.040144111328669 4.382488852980333 0.0315028212902118 )
( 11.79612458916068 4.556727715732514 0.0279741061243741 )
( 11.56242663686205 4.770319960824001 0.0235558291038725 )
( 15.763515502982472 1.7762489230020797 -0.0056972282606672 )
( 15.551449051128325 1.915305405452012 0.0019310735549239 )
( 15.294210640695056 2.1013601904766053 0.0160114573999088 )
( 15.062094889946822 2.2304377385995906 0.0309182480682542 )
( 14.83592026359424 2.355788338010807 0.0457616282929837 )
( 14.606646968237715 2.4953467242511445 0.0574378212838385 )
( 14.363221712097664 2.633869218308001 0.0654966737817812 )
( 14.104156453544247 2.785664412376042 0.0711450534162067 )
( 13.840675589941904 2.960371083449993 0.0744750954310001 )
( 13.569179851020866 3.148622670279728 0.0727191671592789 )
( 13.278908186167463 3.364646861647634 0.0674675956321524 )
( 12.988213102731589 3.5734215938223137 0.0603837748181417 )
( 12.723212992176697 3.751705714863424 0.0522194042019345 )
( 12.47986654694186 3.902225285729072 0.0450553167212538 )
( 12.238807800921258 4.0408959308684285 0.0389000297413809 )
( 11.990018511469236 4.1882695027566434 0.0332277931313448 )
( 11.727331151419945 4.353628907205597 0.0298188395672807 )
( 11.466188277166626 4.5522924561981535 0.0251488748276334 )
( 11.258849076371968 4.817327953481371 0.0190424111654711 )
( 15.675461100682458 1.7283070946300323 -0.0086101096377554 )
( 15.451376729241398 1.8640335799755976 0.0004796348526156 )
( 15.188723971168352 2.0486390158461902 0.0162496946847667 )
( 14.955037354723824 2.1730949619309623 0.0319539966266122 )
( 14.72081383808865 2.2949198351774456 0.0462049444129703 )
( 14.47800151044139 2.433043678043179 0.0570188772101055 )
( 14.222166185684827 2.566011817185199 0.0643110517882713 )
( 13.957436436279648 2.7162770145998696 0.0685539149960359 )
( 13.678018453654737 2.895253992482397 0.070104338439627 )
( 13.383136206593328 3.080882522532955 0.0674062562938206 )
( 13.081257789292716 3.2941259133199026 0.061974438090517 )
( 12.77660106644037 3.5182810311398547 0.0547840311734681 )
( 12.500767406290716 3.6990040435474185 0.0479980677309338 )
( 12.24453150944552 3.847244450264793 0.0422831972442808 )
( 11.98204882626067 3.994410467749143 0.0360819147821023 )
( 11.702550764526912 4.147825306374262 0.0310791240264894 )
( 11.42252388264622 4.330974383801845 0.0268469036612999 )
( 11.17542984059999 4.569304254775032 0.0204462397253882 )
( 11.008635089161215 4.89051438273443 0.0164392940729268 )
( 15.59081888008782 1.6782865778544729 -0.0101916013827015 )
( 15.359794405984871 1.8101770854277768 0.0003937693321088 )
( 15.09140604823638 1.9897306775799588 0.0171241062570104 )
( 14.857218962274432 2.110141845713273 0.0324295288951547 )
( 14.616869205781189 2.2343822499258463 0.0459446150795642 )
( 14.361751594613974 2.3697799436954905 0.0557290463368753 )
( 14.096080678730162 2.4931386212606537 0.0623237414923408 )
( 13.820501732911136 2.646203506106045 0.0656298108955074 )
( 13.523396658101344 2.83001548358933 0.0658247754506369 )
( 13.211310703666372 3.0198421252665217 0.062735595900809 )
( 12.890700916521356 3.227669733220218 0.0572804302115989 )
( 12.572335011695117 3.443657858345944 0.0511771217518951 )
( 12.28570704859887 3.6313535726019417 0.0455891324617837 )
( 12.008994882556204 3.7901261615911994 0.0399119738982432 )
( 11.721152258288136 3.937408456997254 0.0343658304426605 )
( 11.42293634865216 4.100450848267855 0.0298713062623155 )
( 11.139037605092454 4.312911428364874 0.0237823152088721 )
( 10.926692385535924 4.606085328826189 0.0171945117158526 )
( 10.762924223932272 4.96416811415348 0.0147549697386381 )
( 15.513139005371809 1.6254330448704712 -0.0117218081992417 )
( 15.278315598916464 1.752515549902775 0.0001629604058517 )
( 14.999801803949058 1.9234407679641496 0.0179576106355143 )
( 14.76521860593512 2.043961875699677 0.0325567314800102 )
( 14.518038055007729 2.166205848551299 0.044553524493708 )
( 14.249442512613063 2.3006265036505558 0.0540563182762923 )
( 13.983823062797097 2.424560779869119 0.0601843131968604 )
( 13.69422125285234 2.570591701842554 0.0625745521724286 )
( 13.376134124979504 2.755274052611966 0.0619735008748408 )
( 13.045624921224746 2.953806444321908 0.0582192174655527 )
( 12.702037809794453 3.1664030694199146 0.0529450133562022 )
( 12.37767093031778 3.3734294657769066 0.0476843314420677 )
( 12.073472523862732 3.55765957632039 0.0418176163824518 )
( 11.771780996494678 3.7248682234554615 0.0369915106502928 )
( 11.469974347795052 3.881792725230613 0.0333739994897329 )
( 11.166494635635486 4.069130233624855 0.0291376928623531 )
( 10.891340982248586 4.322257740281692 0.0219613897130281 )
( 10.698197787091814 4.659547909898286 0.0155262959929939 )
( 10.431351882868904 4.986967449606138 0.0117854143319374 )
( 15.448196352087134 1.569937129060094 -0.0130680000774718 )
( 15.20262225302438 1.6891140486728684 -0.0007886726528892 )
( 14.915354183923329 1.854637867685062 0.0180859342423732 )
( 14.67645293674132 1.9752084003306716 0.0324160380813098 )
( 14.423787496836868 2.097154892141911 0.043314166649012 )
( 14.146423747139256 2.233859787082884 0.0522929002558084 )
( 13.869065792649009 2.3579035214095097 0.057863407689375 )
( 13.571911227509718 2.496260439331247 0.0599975960480311 )
( 13.242490783070524 2.67478107134302 0.0585689117378912 )
( 12.890897453542522 2.8718076247089463 0.0540760103355249 )
( 12.53098609908892 3.0937089397037463 0.0489230643898708 )
( 12.196567720384742 3.308057967525805 0.0434135445190412 )
( 11.869478927086275 3.488956078604522 0.0376135463603414 )
( 11.54829053057913 3.653906368907944 0.0336275163770535 )
( 11.22974277960641 3.837496536649527 0.0316420419594419 )
( 10.921935110239446 4.054547026360401 0.02703176932733 )
( 10.668485757531622 4.346793378033035 0.0188922075047315 )
( 10.43116005182218 4.706375361237107 0.0156635990546509 )
( 9.967254885608371 4.933709716600419 0.0100653449547643 )
( 15.384205045828512 1.508523748227641 -0.0144774004440214 )
( 15.136148954540378 1.6268565591162754 -0.0023284313298932 )
( 14.84580285256158 1.7861246874784655 0.0164254946562438 )
( 14.596134073427947 1.8987451386988097 0.0307490580019821 )
( 14.337498050714355 2.022688891874166 0.0419456317293349 )
( 14.055891342026143 2.163687182301811 0.0501975677920377 )
( 13.764384473053328 2.2841475032275134 0.0549662495631049 )
( 13.459780796565736 2.4171555574345067 0.056784624969989 )
( 13.111839677365134 2.595965997322752 0.0551569679249375 )
( 12.743656715655463 2.7939699425961493 0.0508391337709351 )
( 12.370354678537147 3.0159368901710244 0.0455199287369769 )
( 12.011983719892408 3.2354459421131603 0.0397038967019518 )
( 11.674455448732646 3.4242361255266798 0.035391510157682 )
( 11.347195366211512 3.591562735934777 0.0325356176117912 )
( 11.01023132683578 3.795612361510948 0.0293377966471756 )
( 10.692979145564852 4.048366454116336 0.022884793871143 )
( 10.44669566739164 4.373881715807775 0.0171991475959729 )
( 10.115756426432563 4.723375711636004 0.0158655189350818 )
( 9.34271195763838 4.773362132337249 0.008716683290674 )
( 15.323725755808164 1.4456700613746662 -0.0163599161978488 )
( 15.074984892434642 1.565416235889912 -0.0030525734132267 )
( 14.781429888637527 1.722109653850357 0.015437363857528 )
( 14.527294497317504 1.8307986521704125 0.0290697056065145 )
( 14.258085830333275 1.9515966773149604 0.0408372511311013 )
( 13.961575523230255 2.0827319522146106 0.0488507557985085 )
( 13.660980015894513 2.2027349792791453 0.0522598544380474 )
( 13.350055975232538 2.3339636622645075 0.0527894655140455 )
( 12.977445324671317 2.5139462098782914 0.0513939624215336 )
( 12.593836311689577 2.7199258846437275 0.0480452736741784 )
( 12.217538375588042 2.938039490277907 0.0429795088143074 )
( 11.849358112157065 3.1597170538268147 0.0376242358677065 )
( 11.499150102460185 3.359172011958379 0.0344566821623508 )
( 11.147218622405408 3.535893169302869 0.0327422993527166 )
( 10.802023557340029 3.7514431781348425 0.0288288552427421 )
( 10.486945956968071 4.039657351793714 0.0220786701896428 )
( 10.193233063601731 4.393997789194145 0.0174470369845707 )
( 9.777271117078596 4.713004820031737 0.0133310214273868 )
( 8.50300477743629 4.457915563046567 0.0076497256791811 )
( 15.270475626376989 1.3892978785239412 -0.01758213085037 )
( 15.015800048144625 1.5051314054354343 -0.0028776572032411 )
( 14.718658793647185 1.6575118308472807 0.0153223932246696 )
( 14.464390837564377 1.7663421944120925 0.0284644569245764 )
( 14.184933568193893 1.8813669024459487 0.0395234270920368 )
( 13.878822918450703 2.002118651226356 0.0467320587063956 )
( 13.569190690255748 2.127355323094788 0.0497134077626452 )
( 13.242535697709007 2.266088517463848 0.0502767596614441 )
( 12.850860727824475 2.43948686025217 0.0488099953911692 )
( 12.44739307897151 2.647584137224809 0.0455681459652821 )
( 12.064606976689932 2.8613214200814925 0.0410467061031593 )
( 11.694423353235264 3.0709935429663666 0.0359790803714111 )
( 11.32747110709427 3.271744793046168 0.0338690669968404 )
( 10.953242258166728 3.467754509965687 0.0314501562097203 )
( 10.59751589479395 3.70767768022633 0.0284246965509534 )
( 10.275971708177313 4.025941742984263 0.0251037038739595 )
( 9.906951739374405 4.391715716492671 0.0200782534565724 )
( 9.251746759813892 4.586264368172171 0.0150464821010979 )
( 7.657292489690232 4.105276196319615 0.0103986021246119 )
( 15.223871240940609 1.3300621588174162 -0.018329127867826 )
( 14.964742923540912 1.44498911276134 -0.0031775138113867 )
( 14.658877920465589 1.5936931017102034 0.0147532565871097 )
( 14.400762058314609 1.6967920345928376 0.0273097750021913 )
( 14.116123440008202 1.8118960366292352 0.0375012060627134 )
( 13.810056048884045 1.9350806483448304 0.0443752916786113 )
( 13.496538265544986 2.05974437913056 0.047730844997809 )
( 13.14742163352308 2.196662151775436 0.0484024260053118 )
( 12.744289669394837 2.3684749150359736 0.0466456009825382 )
( 12.332369643232012 2.574622980949185 0.0438291542934689 )
( 11.931341002686674 2.786838405253842 0.0393708501960011 )
( 11.53582296421998 2.988588826721017 0.0342506179334369 )
( 11.148740059291905 3.184354592880298 0.0312116124047062 )
( 10.763230815051868 3.393948256945392 0.0275014386910837 )
( 10.400928423782949 3.6655071334784086 0.0252540739854277 )
( 10.055086104960644 4.020719347643703 0.0232766310721084 )
( 9.616195543280154 4.373668729909967 0.0208230660476731 )
( 8.642695411417504 4.371497912834438 0.0186998517182792 )
( 6.907598332457037 3.7688226249762153 0.01163607492541 )
( 15.182698019191829 1.2676496086305815 -0.019081249560489 )
( 14.923185302673238 1.3825083721627935 -0.0039896499556438 )
( 14.60859749166634 1.530777927512085 0.013598224941961 )
( 14.3415748435225 1.6286080113701824 0.0257720387650238 )
( 14.049059201350708 1.7395285160054152 0.0356846817800072 )
( 13.73933426764038 1.8626379199261396 0.0423885712398868 )
( 13.418538975154222 1.9764674911215665 0.0452287570414325 )
( 13.057511324520345 2.1119642097531464 0.0462245498545844 )
( 12.655159406887822 2.293919890506793 0.0446553039034377 )
( 12.23493412310841 2.497652865903313 0.0414692775765547 )
( 11.810955645479188 2.712639106511608 0.0368908524852884 )
( 11.389317281864288 2.909176447293265 0.032441589023868 )
( 10.983937299422486 3.1020891397958694 0.0273336385130578 )
( 10.577325956487746 3.3301909948938424 0.0232130888072524 )
( 10.202467741476203 3.623097262519652 0.0230820840838278 )
( 9.806511380628836 3.996198788406682 0.0203644537057974 )
( 9.27121238494204 4.306450629555342 0.0174893037848575 )
( 8.105554385972894 4.150561360823073 0.0179968902632987 )
( 6.193259792973004 3.4135506008402365 0.0108314261467546 )
( 15.146650245422611 1.2135479547539412 -0.0196990246866503 )
( 14.88394958905602 1.3230207502979252 -0.0044430246098491 )
( 14.563853424875004 1.4652722891869092 0.0125967330711818 )
( 14.290037494607096 1.5619312186504797 0.024331528392712 )
( 13.989560268767464 1.6661253890016694 0.0341918163860861 )
( 13.675451175197106 1.7808424147341728 0.0396844643449272 )
( 13.340778282052376 1.890119109487839 0.042132335847455 )
( 12.972319182509535 2.0333691238668496 0.0442020368039213 )
( 12.569761286977217 2.2187419185566823 0.0430002793382252 )
( 12.128234437433669 2.4163148144713467 0.0387761463842223 )