/*--------------------------------*- C++ -*----------------------------------*\
| =========                 |                                                 |
| \\      /  F ield         | OpenFOAM: The Open Source CFD Toolbox           |
|  \\    /   O peration     | Version:  2112                                  |
|   \\  /    A nd           | Website:  www.openfoam.com                      |
|    \\/     M anipulation  |                                                 |
\*---------------------------------------------------------------------------*/
FoamFile
{
    version     2.0;
    format      ascii;
    arch        "LSB;label=32;scalar=64";
    class       volScalarField;
    location    "0.0035";
    object      k_LES;
}
// * * * * * * * * * * * * * * * * * * * * * * * * * * * * * * * * * * * * * // 
 
dimensions      [0 2 -2 0 0 0 0];
 
internalField   nonuniform List<scalar> 
13597
(
0.2764518616932994
0.2811538347713748
0.2897714886592494
0.301151392256719
0.3088865419957902
0.3132473914064111
0.3165758577324303
0.3182911164463666
0.3197735774002901
0.3210267172860484
0.3224125515263535
0.3246068660038634
0.326702646816258
0.3289479783160559
0.3317028117646809
0.3346708208974358
0.3375671830813829
0.3399909592226331
0.3426165504110516
0.2845261433306171
0.2912183709792472
0.3032054249297196
0.3183408393641842
0.3265755424910705
0.3316076584565001
0.3348925965116429
0.3371981716499051
0.3391930625762503
0.3402947134424942
0.3409029094691885
0.3412002448915556
0.3412148948404236
0.3409150445376431
0.3407012075138687
0.3402645023714152
0.3393841985876314
0.3382625411347079
0.337326431715938
0.2955662371443144
0.3045931549230152
0.3185459832636884
0.3338383564100061
0.3411130167462188
0.345123985290107
0.3464502154017103
0.3465542208416364
0.345764206679276
0.3434236614016904
0.3395570155136858
0.3361009965107641
0.3331795482960141
0.3297506258610078
0.3268650316498072
0.3244218630882055
0.3218733584112991
0.3194598340317637
0.3174109001878502
0.3065742627469544
0.3166538974762872
0.3293455240303094
0.3409367675465273
0.3447101100060721
0.3444714973397444
0.3413277237143752
0.336813633826873
0.3314246368376543
0.3258120221382403
0.3186830906243836
0.3125267477002874
0.3078158246433735
0.3042546035038597
0.3022609759087681
0.3011664701834021
0.300536274112666
0.3009803272836834
0.3024236648136094
0.3152396614023797
0.3234541574573155
0.3327591302736123
0.3387284817430869
0.3366565171750079
0.3313996180886942
0.323444387024675
0.3145483930976872
0.3061460590791518
0.298667567602274
0.292534332244597
0.2883646418743737
0.2863550103761996
0.286593736869245
0.2881024075584238
0.2909244011551253
0.2947392665571409
0.2999141570284458
0.3067620955122747
0.3199778492563201
0.3245355841556755
0.3284488310248946
0.3280538845936485
0.3204767645497737
0.3118810814833572
0.3019036068558694
0.2914805656176071
0.2830133711866575
0.2766889522113426
0.2737900747352461
0.2738218194526854
0.2768431520310813
0.2822798649304134
0.2891392988915292
0.2972367717393076
0.3065188448655934
0.3169175923236709
0.3294520631227888
0.3203718396121275
0.3211393097361378
0.3193703201939209
0.3129389724891935
0.3027732838430419
0.2920144237945554
0.2808356219294095
0.271535723082443
0.2656315404338445
0.2633352632382331
0.2646620971811292
0.270264414837556
0.2797082421859264
0.291205409474117
0.3042766484150667
0.3180075757266651
0.332466870218495
0.3485559450178592
0.3663843699235747
0.3187483457065958
0.3154756955212132
0.3093715633127698
0.299005209752223
0.2865530077541841
0.2748696165834903
0.2648009256802959
0.258032515873336
0.2555941911317481
0.2578583739400729
0.2650072511880139
0.2777145943687083
0.2937546868282374
0.311432189454989
0.3296822637583658
0.3483274776212168
0.3679689521465265
0.389353164671296
0.4116928535996128
0.3151397148985572
0.3082601928409068
0.2986697708296524
0.2862533489892467
0.2730817308293127
0.2623721888153396
0.2542904299638142
0.2507180013228909
0.2525433990854702
0.2602937245212228
0.2740962115242394
0.2932029004332046
0.3154883379711615
0.3388298330911743
0.3617552541380312
0.3847394957332207
0.4084608240205543
0.4335904978411486
0.4598209726145229
0.3113897571475245
0.3016882036120742
0.2881885298007936
0.2748991268004582
0.2629088178281808
0.2535111508073799
0.2474500861983265
0.2475917026434609
0.2543939398962271
0.2682157078176433
0.2888037788776228
0.3136320489434064
0.341186454652394
0.3689871629474398
0.3957282387774429
0.4225072408617565
0.4500725379001565
0.4788141913098936
0.5090998666942231
0.3081410959760653
0.2956424815367975
0.2798023566947481
0.2661413781541847
0.254158971355414
0.2463577559789937
0.2443144424943635
0.2487184445251682
0.2605975173481404
0.2796009922932612
0.3056006305023165
0.3365316307484144
0.3679897061188036
0.3993680809991247
0.4302470950956009
0.4611515177063039
0.4931892615590374
0.5261153330662506
0.5614776447813163
0.3041626814043646
0.2897385006970663
0.2729394252384023
0.2588018004899531
0.2476250063368267
0.2421283974146557
0.2439685209562924
0.2528906364129307
0.2697401243032316
0.2935876768488663
0.3241182000699127
0.3595703096502651
0.3950807682266473
0.431031979430915
0.4669929698476686
0.5019812171921153
0.5378721183249177
0.5764681568346045
0.6186807681930945
0.3012185480052061
0.2846561744302092
0.2667380221671074
0.2529950266990896
0.2435693460910025
0.2406272096328671
0.2456868319861766
0.2591199232449237
0.2805981018800348
0.3088393749202912
0.3443962421194048
0.3836692997765495
0.4235699692018657
0.4647041783768676
0.5042359116940524
0.5431161393963793
0.5851662423010835
0.6314132937775052
0.6810978291259489
0.2997202570225522
0.280350844011191
0.2607358620546055
0.2480232424568604
0.2405351101838136
0.2404738494303314
0.2488141229696199
0.2655193620933517
0.2909159821429765
0.3239006260408499
0.3637497684672691
0.4077929834355705
0.4530150526231491
0.4977116703597377
0.5410838078528157
0.5868307205331089
0.6376284415590726
0.6916130500177419
0.7492292108458112
0.2973393954775195
0.2753338886686114
0.254862792316322
0.2432056012835199
0.2383657904163613
0.2413068801458598
0.2527745565055985
0.2728577417326806
0.3016249110663201
0.3387272629183152
0.3833126198511591
0.4326008565179347
0.4835984508250319
0.5320990912862585
0.5809740119391187
0.6348677618531496
0.6940048092405523
0.7576189951432285
0.8322817391896989
0.2931123886167201
0.26969835673584
0.2500255534183445
0.2398984092285138
0.2375072928951246
0.2431235554295824
0.2574119181262815
0.2809840690111122
0.3134577284933142
0.3537869289501454
0.4040245740802712
0.4599508555069561
0.51452674927779
0.5672588497625632
0.6234695950939128
0.6853991799881433
0.7544075982621783
0.8352262749935871
0.941510669441744
0.2872521264898516
0.2636893519180155
0.2455230993869786
0.2374053353046564
0.237284037554207
0.2457187394535057
0.2628998642179201
0.2890311417753359
0.3248497614869494
0.369340904874707
0.422770971349268
0.4842816172802818
0.5441041811966306
0.6028530447913579
0.6673567580546566
0.7390636718333297
0.8229956069852151
0.9314898141036017
1.0728472803897025
0.280782359574358
0.2577450771848579
0.2411153599533382
0.235160438595059
0.2373894117365648
0.2485085917772196
0.2680193594543652
0.2969966827985888
0.3364555672573962
0.3849078363167293
0.4421431103857004
0.5075533213736293
0.5736749842757254
0.6410476139215286
0.7138185190236433
0.7966721450972925
0.9041196594997764
1.0476465110611135
1.1988405906374229
0.2746752468050399
0.2524233892456378
0.2375293498399487
0.2336749813359383
0.2378254769980189
0.2516800144368685
0.2731383859568532
0.3044860420189174
0.3475813731407841
0.4001439132134156
0.4633131130287385
0.5322516640660213
0.6042503926248474
0.681015979129421
0.7633010052591348
0.8636047736381153
1.0024859602441707
1.1797876130606122
1.306315059084405
0.2687787940557682
0.247170355026612
0.2346307097289259
0.2327036783148401
0.2388690185485634
0.2549904986100899
0.2789276925876623
0.3122508712736628
0.3575625817032113
0.4141070157460721
0.483265540574437
0.5582298855335295
0.636678675484724
0.7203367695858606
0.8184682384779638
0.9420654825286942
1.1154021166949688
1.3153334238333545
1.3859759925940751
0.2625492872243622
0.2422462973425883
0.2318034166190348
0.2317160417529562
0.2402448860257952
0.2583515059142671
0.2842731453203429
0.3192347150207961
0.3677882871120245
0.4283784861590732
0.5027024279234135
0.5860694097464627
0.6709357246750872
0.7599578793202922
0.8755769629873468
1.032008421085674
1.2401675388300228
1.4404173056090943
1.3934729254724114
0.2562838608944192
0.2379600522706301
0.2295238384910962
0.2314102696361664
0.2420701217525127
0.2625021773178991
0.290173340492019
0.3262772427735974
0.3791716943969252
0.4442711580401377
0.521840308153702
0.6101716518924466
0.701729571505662
0.8034344418088107
0.9360451905345056
1.128375231766242
1.3673890491073053
1.5451652787472403
1.3018099156963996
0.2504416532779555
0.2343533577046243
0.2282990028867899
0.2317842239249882
0.2437847745384725
0.2657334562261002
0.295453838926283
0.3341740039801179
0.3903915160907269
0.4608056262829743
0.5421199250828348
0.632668075002767
0.7300545090055219
0.8471303591826059
1.0080668762162288
1.234830876984648
1.4918356653314633
1.5798462879008486
1.1917485079133738
0.2450254112741771
0.2308463886912522
0.2272515343809977
0.231984714454119
0.2452451282325023
0.268632526248845
0.299832665227545
0.341183713488803
0.3998716799303448
0.4736163677722127
0.5598766403802066
0.6575859167183186
0.7631698643112962
0.8947668256808827
1.086476720100512
1.347430706926243
1.6067175686464708
1.5579829346518308
1.0879495018252483
0.2405085796116724
0.2280827012335826
0.2262107950246958
0.232313494607479
0.2472437913993767
0.2719980819951089
0.3040959358798881
0.3474239820164809
0.4080834794991316
0.484550868762429
0.5771087931861656
0.6817321629408205
0.7959609824462099
0.9504443669890528
1.1668920379337913
1.4517678391612538
1.6896345931921992
1.523737132521716
0.9712544810187264
0.2369900220311004
0.2262283012630439
0.2257102447075957
0.2334450724121234
0.2498094113897525
0.2747251463643601
0.3083685237671694
0.353854353544454
0.4159705472368293
0.4969582997110697
0.5941060088506522
0.7033059908378471
0.8283821912364286
1.0042375225456592
1.2459730715045492
1.549626285045568
1.7138808666702032
1.446675677683339
0.8808224635196181
0.233267742629967
0.2242257737133116
0.2257155837689852
0.2351620003805515
0.2523180453002367
0.2774159352149369
0.3132422213380355
0.3613161402778544
0.4251269922750934
0.5094889152675774
0.6098061254292994
0.7233024813831791
0.8607614941658809
1.0531398581065865
1.3243187816551434
1.636373951372733
1.7196436210131196
1.3608495267492566
0.8060442379747388
0.2298487623503803
0.2224764920229537
0.2260452842647929
0.2368922174487306
0.2547455491900045
0.2809496710776929
0.3178507388292446
0.3671980176285596
0.4334665974021262
0.5223986610730486
0.6271775915865772
0.7428354233887275
0.8903421710992097
1.102258275097237
1.4079897417390284
1.7180998001419188
1.7455159467518289
1.3030016228381656
0.7421563821367501
0.2269484734036091
0.2212578173117886
0.2261597833416891
0.2380685216775785
0.2568230822972124
0.284001734156443
0.321576971537663
0.3716470028747283
0.4406343523428866
0.5335613732744352
0.64096598264461
0.7632997636812466
0.9286763203131057
1.1558212362667522
1.482680513488563
1.7796085678965214
1.7451004867088724
1.2496899485922557
0.6999872266839704
0.2244910412875192
0.220277798995231
0.2265603489471709
0.2394120656212865
0.2590084736636444
0.2870465194728812
0.3247691190037713
0.3762212857443087
0.4485290212100071
0.5423866992263306
0.6512733451812226
0.784748338090351
0.9632527975360315
1.207450164247074
1.546114064647941
1.774959231545846
1.6762638204397724
1.1955851504975792
0.674198716115133
0.2226706647816603
0.2197544927473905
0.2277519158175915
0.2412305091579177
0.261062453797745
0.2902759970522419
0.3283491456100132
0.3815743794498485
0.4562854973611601
0.5512332009313377
0.6633051591953674
0.8048747443230615
0.9868307146362716
1.25192484286878
1.6022591726252866
1.7603753729428653
1.604911065530225
1.1473067744029375
0.6559178441640349
0.2211649085675765
0.2196215785183169
0.2290877325988833
0.243323854252822
0.263618965033675
0.2932531491129719
0.3320217688828427
0.3871455420036082
0.4632802212460133
0.5599947716940091
0.6751533054313142
0.8213753340385687
1.0112167195789383
1.3054092958039731
1.6556712291304834
1.7788300828416892
1.584660717777411
1.1071579069119004
0.6343523072510282
0.219891485805732
0.219520548591435
0.2301200721761574
0.2454102901540522
0.2665515536895662
0.2955159037965035
0.3343274069488632
0.3913947737726125
0.469398848207874
0.5684365376453945
0.6866714900352939
0.8378598234440988
1.0346577511631243
1.350396100498268
1.7064321139040306
1.807285111301747
1.582446485021202
1.0782077482284844
0.6104893750016819
0.2191180629439643
0.2197585850084807
0.2311023799903593
0.2470631853840001
0.2688671898045628
0.2973687261897346
0.3360179628349399
0.3947414212721468
0.4744085459315081
0.5769302919962315
0.6994882898663862
0.8540467122959456
1.0554752869640585
1.3818794909848895
1.7498553765610183
1.8364240183080531
1.5835885050492453
1.0605038451424331
0.5956209713351952
0.2188282886817846
0.2201869843435424
0.2322569565111172
0.2482393431662711
0.2703550567457595
0.2993149888355895
0.3381328440079879
0.3971659976737687
0.4783291221276486
0.5834779314551802
0.7092392660246861
0.8671336789218844
1.0777648646356128
1.414505308191405
1.780005483371224
1.849986178574633
1.5778948683973786
1.0448923082165111
0.5852563364130678
0.2184306508427242
0.2205019506274236
0.2333940002752152
0.2494452310139232
0.2712899171609937
0.30087380717983
0.3399055676490966
0.3990884441508189
0.4824926806564134
0.5883322811862026
0.7164007498678543
0.8790336495314379
1.0980094310922484
1.4377410020238464
1.8017740446650197
1.8615965464515327
1.56830281960806
1.027311386496872
0.573636006395423
0.2178588429434128
0.2206797413359092
0.2346296862058036
0.2510507541334972
0.2728633701573095
0.3030935887707247
0.3426171931742527
0.4018621324990758
0.4869232023896821
0.5934703480313573
0.7232743942735109
0.8905964759617658
1.1148562206279309
1.4579596493628155
1.8198853516988291
1.8660783694601235
1.565661220477892
1.0215781512108792
0.564683816117939
0.2174688267904723
0.221012621222401
0.2357969610625914
0.2525007449953803
0.2743889581016918
0.3049313326248004
0.3455244738749108
0.4047762347001288
0.490888963818805
0.5977899329108193
0.7292311444653986
0.9008144122104096
1.1356967878396844
1.4818196310501337
1.8275541042422712
1.8647718810662088
1.5578933856414086
1.0169898324857654
0.5593683281481658
0.2172199082379722
0.221479259131185
0.2364846394515005
0.2536907907638754
0.2757803694634065
0.305816639140879
0.3468689083703157
0.4065837797335786
0.4941885411146882
0.601511580660333
0.7342125624779661
0.9088729780077134
1.1575239745115449
1.5105880535051477
1.831025837869694
1.8566869854893973
1.5423530677548678
1.0058084536343728
0.5565375171835035
0.2169981719465061
0.2222224921332115
0.237841389100757
0.2552744154998408
0.2774832941865878
0.3071935928980769
0.3482378260669054
0.407893402499913
0.4956963590097689
0.6033976624231747
0.737296917667015
0.9143661088530236
1.1691321309901752
1.5316156258085396
1.836365058712952
1.843189095737637
1.531670122586339
0.9991435061435824
0.5552512541236513
0.2169051327658687
0.2229794705713027
0.2393006407715912
0.2566859680935156
0.2789525740741725
0.3088293418694379
0.349479925276011
0.4092853518175698
0.4977358386190572
0.6068127933155507
0.7410184317710345
0.921430860220792
1.1792973044514146
1.5422381426212866
1.835650172271834
1.8273734019272687
1.5176403018095028
0.9908290396462583
0.5544622491806981
0.2169195833793341
0.2236645273475373
0.2403133983536994
0.2577131623947953
0.279945182359088
0.3101076227785128
0.3509749145199798
0.4111756556174614
0.501064224805342
0.6128573724501463
0.7464119024259945
0.9286511761078642
1.1886093660521422
1.5459421172997758
1.833402678242554
1.8186754163866707
1.5022889028337836
0.9782938836902676
0.5513367424438181
0.2168532506000319
0.2243157814007316
0.2416081825891201
0.2591451618678913
0.2811831867562193
0.3113088736900675
0.3526173779398682
0.4124994486145474
0.501898698715962
0.6157851115378303
0.7503363947060123
0.9314892505521598
1.1885735786196123
1.549879016355593
1.8417121829615084
1.8157759235718829
1.48864030217218
0.9669421135144818
0.5449092229636809
0.2168542054906284
0.224598637950368
0.2424703392422324
0.2604042886441016
0.2825380265556569
0.3123889323611852
0.3531998722742369
0.4127853632830431
0.5032089447233968
0.619197086129817
0.7542708955327218
0.9357243070007104
1.1913892854419916
1.5554267043000938
1.8377931857682015
1.7999430039124842
1.4758922653514948
0.9598301054894888
0.5414018480074045
0.2146176461744298
0.2151429554642693
0.2169222985374717
0.2198983570808424
0.2229215785667685
0.2244160688302017
0.2246844807378145
0.2241028017981424
0.2238879193678011
0.2234278355661235
0.2227078828816731
0.2223771341737545
0.2212268841560566
0.2200398605289656
0.2196909641150795
0.2192955974073359
0.2199419953710671
0.2214697681308448
0.222882539316604
0.2183257631863836
0.2196846384855521
0.2216857295589511
0.2262606124534488
0.2304838055188345
0.233424127696213
0.2360360334186986
0.2375706710827841
0.2385593048838553
0.2392101107157576
0.2396914478859918
0.2408036838230553
0.2410827645588532
0.2408535320206361
0.2413608621361248
0.2417709402911886
0.2429141752064416
0.2451014494026624
0.2465527887855836
0.2222072520975302
0.2243962960658083
0.2282807737207106
0.2359660387358183
0.2422053432854372
0.2476792140093568
0.2528443698707657
0.2563792101407938
0.2589188086574266
0.2614666052618158
0.2633716849809489
0.2649454717559143
0.2662159682027005
0.2672457468743112
0.2688112982572322
0.2710818835328398
0.2733763840750117
0.2754466769496171
0.2769874136548858
0.2268263145497731
0.230062989907989
0.2361167906853494
0.2468863511138073
0.2555325897571421
0.2635447820045323
0.2708004982926368
0.2759404850289549
0.2794931976851469
0.2821208865125018
0.2843772804908813
0.2860529439384763
0.2882260136838416
0.2911279766403742
0.2934795009740236
0.2959400610751888
0.2981963109363475
0.3002147430846664
0.3021465087286363
0.2303732048377499
0.2348190772760198
0.2450010852337623
0.2588316151048353
0.2696155746483852
0.2793546333710927
0.2878399285328289
0.2936419064170544
0.297951755263
0.3012661799333181
0.304516840343901
0.3075744474996168
0.310583878188118
0.3141517058091555
0.316829464110854
0.319143333141954
0.3209025024745815
0.3221692391025522
0.3226107691408555
0.2325757067115763
0.2394689187220716
0.2541150071346288
0.2708154584013105
0.2834877794738342
0.2946071627205026
0.303639121889829
0.3104291409570466
0.3160372964920638
0.3199876600052128
0.3233259788251079
0.3269252094884823
0.3300807760513863
0.3323238606014114
0.3340532553216575
0.3354617358608411
0.3358480859050101
0.3359985412397979
0.3356639254301813
0.2364814446691856
0.2461516580806304
0.2631530740180524
0.2822534964662792
0.2968088135161852
0.308628815579287
0.3180002817472261
0.3253528809423194
0.3315547316235122
0.3359405126264235
0.3388797833881219
0.3415468117351175
0.343698376023421
0.3448386883525187
0.3455496010643314
0.3463281055775458
0.3470191604818093
0.3480507102391355
0.3492387269923674
0.2414509998867912
0.2525505288602024
0.2731356231444922
0.2939303168385258
0.3087363494587172
0.3206158429161847
0.3306886074992277
0.3376386013322647
0.3430961829665881
0.3475471708181215
0.350110361783321
0.3518602878894375
0.3529291057811412
0.3538704049410734
0.3551675223682944
0.3572889498201215
0.3601695617907575
0.3641785551459482
0.3692932490630505
0.247260000789036
0.2595473629915383
0.2825411739675129
0.3043001391218489
0.3188872938013922
0.3308443575762131
0.3408285444257393
0.3481344925129805
0.3527582930829522
0.3553909517174899
0.3570432334273172
0.3587992730227302
0.3604436675477579
0.3627104341539987
0.366482984439301
0.3717677347912035
0.3784932640296734
0.3872450154163753
0.3981169716228978
0.2516757508275638
0.2659208338291321
0.2905510491890682
0.31217081971765
0.3271099380853031
0.3393507186681565
0.3486614368699205
0.3550110908411737
0.3585459341285745
0.3605508517516176
0.3621906387769262
0.3649091878472306
0.3688664427839212
0.3745304741467133
0.3822854605043441
0.3918016512166935
0.4041836296446754
0.4192990884460688
0.4369154752544312
0.254638049841763
0.2714294371336856
0.2973530748916053
0.3185772644446932
0.3334679788153676
0.3453380538157745
0.3535519540144278
0.3583013046143226
0.3612431863714184
0.3638042259854385
0.3667446383660357
0.3721354464335336
0.3798562105491556
0.390155249414248
0.403266817764125
0.4183902549439724
0.43696182781905
0.4589467065893775
0.4838505946536301
0.2583473695169482
0.2762235851958054
0.3026935510505903
0.3228344329410048
0.337082445699267
0.3485179994224299
0.3554478479665655
0.3598857797547073
0.3632617206549963
0.3669091218615966
0.3729201602084458
0.3820380817742992
0.394106458480729
0.4096616434530823
0.4287734148285769
0.4505392433452019
0.475750572374214
0.5052316083758822
0.5385979786582503
0.2607045594274313
0.2789188237683797
0.3062720422459412
0.3255945620999416
0.3393703716304599
0.3499500998941938
0.3560844879389085
0.360345181424639
0.3647761197546545
0.3710313441764499
0.3808838297122873
0.3948200938719857
0.4121158120736824
0.4329121175242406
0.4583025083234718
0.4875008119600294
0.5206648024044541
0.55935121401839
0.6031779530515746
0.2616048304408739
0.280186017979419
0.3079414411142204
0.3275527568691546
0.3411948723421894
0.3502716564157316
0.3557879314056031
0.3605243749026866
0.3666465335376838
0.3760817197916529
0.390214375834936
0.4092239652321683
0.4327217494167464
0.4594140760334083
0.4920140558634344
0.5305078537050006
0.5725685989953168
0.6204868311880817
0.6759266756930536
0.2621555619641289
0.2807011149610446
0.308464575109815
0.3277687761171514
0.3409236514704454
0.3492275369188094
0.3551742426952924
0.361049170453491
0.3695090901651681
0.3827132323689166
0.4010904832938921
0.4251489060457017
0.4554694744445292
0.4901334564239598
0.5301337993572299
0.5776562818269873
0.6301046597853444
0.6894655381744651
0.765854617187655
0.2620884634990469
0.2811214911619097
0.3089037203944068
0.3266098138538085
0.3390926606300908
0.3476345269584038
0.3547792766609859
0.3622589556594531
0.372857937323571
0.389955296965947
0.4128332865267239
0.4435397096029511
0.4810559507755772
0.5243325531574178
0.572505560580706
0.627055602801473
0.6915648310162562
0.7717152297279023
0.8803620362158776
0.2612796135131126
0.2806223323525732
0.3087708852145436
0.3250973485160898
0.3368953757523781
0.3457968478128621
0.3540017200144519
0.3635152420547766
0.3771391722530469
0.3979662338852093
0.4262265150075214
0.463688053958398
0.5081689264075158
0.5596316797633208
0.6173152928312096
0.6818928176693966
0.7617380179836817
0.8717425770053773
1.0089171596181492
0.2591803014172126
0.2787304199096366
0.3073322801673864
0.3228649108801187
0.3340408984714056
0.3437401414193424
0.3534311003018074
0.3649002063550742
0.3822158018225131
0.4072241715938485
0.4415718562223022
0.4862460455542553
0.5383667706969864
0.5980035295345296
0.6642224160352157
0.742824375927319
0.846771003959316
0.9946652892879893
1.1367494442578632
0.2565063271535357
0.2766100813323958
0.3046186324465322
0.319511885695714
0.3309952005858123
0.3413857925341212
0.3528278249879762
0.366892903844113
0.3873673528108437
0.4166688427191765
0.4576063643523175
0.5092426482559413
0.5698128374195387
0.6377977402121131
0.7136714908938099
0.8121731531679114
0.948420094190761
1.1248646672410885
1.2280832336446867
0.2543846366530946
0.2743113777599898
0.3016291337951963
0.3166151165660485
0.3287410428094839
0.3394579758742636
0.3518945189170203
0.3688371902334608
0.3929571939542682
0.4267880322039151
0.474746943977285
0.534031902725466
0.6024771656179366
0.6795591498780091
0.7681577751008828
0.8892232974822122
1.0638366271839734
1.2445144357054765
1.2774042263012508
0.2519281187650532
0.271101731086951
0.2984493977468412
0.314157000257194
0.3264649026911388
0.3375207669452594
0.3517019368470311
0.3713300743336716
0.3986950510994371
0.4372300089414362
0.4922713598978445
0.5611606563930873
0.6368319809070329
0.72373125293522
0.8298244472532091
0.9779370291657152
1.1837821889761588
1.352693592930344
1.2776576846728236
0.2488984417009594
0.26778767771737
0.2954339440942705
0.3110435199489702
0.3235297388580536
0.3356837570035221
0.3516226388947029
0.3737943882725101
0.404755620594609
0.4482932534371248
0.5093224423147361
0.5861316074839898
0.6705468009826019
0.7675574579493248
0.8916044955789212
1.0775356668595302
1.312624432737881
1.4576565699261514
1.1925754473601706
0.2464922194352597
0.26470723849374
0.2918209397559894
0.3071665973401999
0.3202843258324936
0.3338061469802342
0.3513803058590593
0.3760389773880036
0.4116146466107565
0.4611196832652615
0.5280560094450831
0.6123425231101853
0.7066389814637434
0.8154179351846524
0.9657509288002954
1.1893718026189994
1.4358022063452982
1.4802150217084369
1.081945397171041
0.2440735564488455
0.2615732423481892
0.2881584396432182
0.303621382436693
0.3176695074465493
0.3323066498510393
0.3516976238663316
0.3787498859124343
0.4183278533195405
0.4742632157363367
0.5473141132942758
0.6383044605559475
0.7422004154346721
0.8665469890263486
1.0475451589487668
1.3028806755164202
1.5328354171734897
1.4410553205656784
0.9919060670621452
0.2409347641142133
0.2584071976510245
0.2853657354860525
0.30085558705353
0.315150455793227
0.3307871367348343
0.3517196190603534
0.3814952848143818
0.4249409632292297
0.4868935046621337
0.5670365635979774
0.6642847573358748
0.7774405847941194
0.923533884938056
1.1312300934027983
1.4007549953793017
1.5966588228142138
1.4162129433331472
0.9020999400127504
0.2379802451834159
0.2555880354404679
0.2828711387328178
0.2983333403677897
0.3122741100127378
0.3296015346308322
0.3527144903188929
0.3845044217130401
0.4320469052905859
0.4991553742183605
0.5851905881781054
0.690151531956211
0.8100626967640953
0.9759853592580912
1.213127642952167
1.487217596402741
1.6020449338160845
1.3401450623925302
0.8190733779765415
0.235616343344367
0.2527156001465846
0.279466078362191
0.2951400419478275
0.309921306731906
0.3286872813138934
0.353729105381891
0.3872842890236564
0.4380788701729222
0.5095974378928121
0.6027136135940131
0.7161768577902198
0.844407912891701
1.0241591175225468
1.2877595627934095
1.5693083198961677
1.6124650272818422
1.2676373801398668
0.7490537853111735
0.2335718824150059
0.2497139622289448
0.2754675846141967
0.2917072731982398
0.3078580508584462
0.3270608181732073
0.3529846838034604
0.388910055425016
0.4427787923028001
0.5193369610475419
0.6206763042431948
0.7396393708942952
0.8816503485807314
1.081078562331098
1.3692175831406708
1.6567595914052264
1.6499974612592132
1.232114558987595
0.7032185387297113
0.2315077979647657
0.2469943530333622
0.2725325585073209
0.2889602183054764
0.3054259634941349
0.3252396710383274
0.3522763258082042
0.3913393337274281
0.4486503258678556
0.530436417110947
0.6360089469920007
0.7598845193444788
0.9178582387274212
1.1355095125861228
1.436993023578812
1.7040549194240846
1.6488962918387484
1.192944573404505
0.6727394853466855
0.2293994477874895
0.2445401721966119
0.2702091168083508
0.2867371463479898
0.3031220356448736
0.3238647802434651
0.352800382819218
0.3947230506482415
0.4540876784492552
0.539844530689962
0.6506008927395801
0.7838272980588453
0.9558050136446778
1.180858899887703
1.4922167265219528
1.7063727976114444
1.5880560525220897
1.1340507146648129
0.6420864483876522
0.2272736339039308
0.2424058292854504
0.2672576881952822
0.2836962800298399
0.3007301510748431
0.3226104910275058
0.3534270239091863
0.3980485348069874
0.4594005993590578
0.5481032172117805
0.6635676615579289
0.8039466649805463
0.9817195694612078
1.2207432241592646
1.5535069001980182
1.712454513085615
1.5279462859169533
1.0782522319638712
0.61569726418158
0.225003211362876
0.2397485220017628
0.2638936632587293
0.2806110581143433
0.2988409035974729
0.3218006540982668
0.3538998766004242
0.4011999976945805
0.4663694170321332
0.5588875639187387
0.6766625460488517
0.8212480275442805
1.0043291502260636
1.264770519298516
1.611406624151518
1.737944922083266
1.5140025348615975
1.042847728310683
0.5936436889728346
0.2230990025757004
0.2375758235052584
0.2617661920609205
0.2782400169872407
0.297328505771964
0.3214868919326257
0.3543264211502356
0.402815556384001
0.4713175384445341
0.5686436848488372
0.6907062971294183
0.840112392928019
1.031784007837943
1.3124364659998478
1.6609612902177548
1.7715712254107103
1.5183075489622335
1.019478834768799
0.5839444488405744
0.2219575533925163
0.2361489935341078
0.2599891840574993
0.2761203878116713
0.2959674985975471
0.320993850132484
0.3546334175843131
0.4040660588873533
0.4750438949387601
0.5742953111652057
0.6984302125533093
0.8545020974796904
1.0531178736466291
1.3517421040075226
1.6976169900594495
1.7907660723352063
1.5240511557663814
1.003098905798887
0.572948830047645
0.2213937390163863
0.2347212474313858
0.2576764987641316
0.2742873038078717
0.2945376726253501
0.320400617930543
0.3546142943044173
0.4052059596626625
0.4805916391576948
0.5810308849441249
0.7060211979247024
0.8682745632735269
1.0689911499054134
1.3787068789052317
1.726603457553749
1.8108286184049864
1.5298629016625511
0.988304828941128
0.5589277116264281
0.2209375520293193
0.2333220959793268
0.2556126625639126
0.2725321019776091
0.2924587182040357
0.3191937613851424
0.3545151806018506
0.4071924256781042
0.4860087897885368
0.58789031446272
0.7168150345165083
0.8810724073056779
1.081580432765091
1.4046624005596469
1.7633430227867628
1.8332855622215911
1.525711510461544
0.9790987942599114
0.5539875803258806
0.220266602561919
0.2318902764643611
0.253838012514804
0.2709754374563717
0.290363186410105
0.3177469975551941
0.3545064238047782
0.4093715665346479
0.4902349513740941
0.5927901120793034
0.7229732283189246
0.8904953305412305
1.0984597328768944
1.4310580283278758
1.791366816381241
1.8464121778959328
1.5230889646448935
0.9776700053083176
0.5542423712985846
0.2196036699846938
0.2307009359828058
0.2518454271766194
0.2693318323775431