/*--------------------------------*- C++ -*----------------------------------*\
| =========                 |                                                 |
| \\      /  F ield         | OpenFOAM: The Open Source CFD Toolbox           |
|  \\    /   O peration     | Version:  2112                                  |
|   \\  /    A nd           | Website:  www.openfoam.com                      |
|    \\/     M anipulation  |                                                 |
\*---------------------------------------------------------------------------*/
FoamFile
{
    version     2.0;
    format      ascii;
    arch        "LSB;label=32;scalar=64";
    class       volSymmTensorField;
    location    "0.0035";
    object      tauij_LES;
}
// * * * * * * * * * * * * * * * * * * * * * * * * * * * * * * * * * * * * * // 
 
dimensions      [0 2 -2 0 0 0 0];
 
internalField   nonuniform List<symmTensor> 
13597
(
( 0.1978447317270176 0.0662978440336965 -0.0021723555625784 0.0996832464307337 -0.0021991733972369 0.2553757452288471 )
( 0.2013694713695795 0.0703577251878961 -0.000289035635415 0.1027603630974841 0.00134752581805 0.2581778350756857 )
( 0.2083734831339928 0.0771711937199663 0.002120461479936 0.1084174799379397 0.0076347502230439 0.2627520142465663 )
( 0.21866463167417 0.0854811407807255 0.0047349458610181 0.1165956587313979 0.0146792073836403 0.2670424941078698 )
( 0.2283396752009193 0.0916855347877628 0.0062993126318153 0.1239530897575154 0.0196217638234802 0.2654803190331456 )
( 0.2369092138735471 0.0956451637926971 0.0066570133601781 0.1299481922741573 0.022979184004985 0.2596373766651177 )
( 0.2454295096185935 0.099383129685694 0.0060954808238697 0.1355355526819626 0.0254043981956196 0.2521866531643045 )
( 0.2541124583079016 0.103138539357846 0.0051427141308215 0.1406874465695886 0.0269807093051844 0.2417823280152429 )
( 0.2631657938881655 0.1065740110840329 0.0042296478847727 0.1453023416976284 0.0284079091760521 0.2310790192147863 )
( 0.2720740706458381 0.1098939233710627 0.0026396639444601 0.1498558208148367 0.0295952084613127 0.2201235431114219 )
( 0.2813527303985623 0.1130760014494093 0.0005989898205392 0.1554103853522832 0.03085811650836 0.2080619873018613 )
( 0.2912112715728581 0.1162872272945513 -0.0009401003128436 0.1611766251618308 0.0320277623098199 0.1968258352730377 )
( 0.3002798185307698 0.1195354654280574 -0.0021865971525928 0.1663588426005178 0.0328389225105042 0.1867666325012281 )
( 0.308764982988715 0.1227182156604492 -0.004037144092751 0.1723106030400551 0.0340261146501239 0.1768203706033415 )
( 0.3174529731177676 0.1259813784495508 -0.0068886288183334 0.1791236284527724 0.0348587085559214 0.1668290219588217 )
( 0.3253623417519621 0.1292449386025116 -0.0092505402830904 0.1853601731016712 0.0354900617831031 0.1586191269412381 )
( 0.3323528694098692 0.1318019193410727 -0.0101145663129017 0.1910585243623611 0.0363790347555108 0.1517229723905353 )
( 0.338490613380785 0.1335600386194104 -0.0109671083327512 0.1961569120234735 0.0372063463177758 0.1453343930410075 )
( 0.3446428716568256 0.1359386091884572 -0.0123715431267821 0.2009549076081644 0.0375552211355902 0.139635321557113 )
( 0.2081665193717919 0.0811481456165821 0.0016906582660532 0.1156901291893719 0.0036414545023091 0.2451956381000704 )
( 0.2133687406722033 0.0886097031752207 0.0021850103739595 0.1215517694760571 0.0068190317796156 0.2475162318102339 )
( 0.2237258719170228 0.0992530408503259 0.0020757508336222 0.1303380122850927 0.0114403646909631 0.2523469656573234 )
( 0.2385276833101047 0.1101117814972101 0.0022120914684657 0.1415377551669874 0.0154028187749757 0.2566162402512764 )
( 0.2505724053973544 0.1174453866936931 0.0005794308084139 0.149886421643646 0.016680069274781 0.2526922579411404 )
( 0.2611628926092136 0.1225604482812119 -0.0019410484715144 0.1567043812040791 0.0170311641318953 0.2453480430997076 )
( 0.2712029551302304 0.1269699653481614 -0.004212855493931 0.1630181873045525 0.0166430769681519 0.2355640505885028 )
( 0.2814858938006911 0.1310506101129997 -0.0069495959810016 0.1690659676121036 0.0153996234434673 0.2238444818870155 )
( 0.2916616820847914 0.1341956115282265 -0.0090745195542725 0.1741532455938016 0.0146950215273364 0.2125711974739075 )
( 0.3005440313166814 0.1366144342381708 -0.0105134275516167 0.1790416090070817 0.0138547781035622 0.2010037865612251 )
( 0.3089773224116528 0.1384005344537515 -0.0121664755134441 0.1844236779662444 0.0129198298837192 0.1884048185604797 )
( 0.3169735762539878 0.139643578460389 -0.0133054079639331 0.1898100766266997 0.0121638811136722 0.1756168369024234 )
( 0.3228737686460797 0.139805370911326 -0.0140066648706797 0.1946893821994653 0.0112209496486953 0.1648666388353023 )
( 0.3268744522024729 0.1394068861907416 -0.0138965650787561 0.1994739703569397 0.0107807805265135 0.1554816665158734 )
( 0.3297052064523053 0.1386699272884057 -0.0131446000794831 0.2040437662224675 0.0104955924471002 0.1476534423529645 )
( 0.3310166151687021 0.1372745282497063 -0.0129680867512785 0.207636798147476 0.0096509412357608 0.141875591426652 )
( 0.3307979322702873 0.135329401400715 -0.0122963074074785 0.2104197576141274 0.0087688502995092 0.1375507072908482 )
( 0.3291414019897809 0.1326036078520737 -0.0114068611413976 0.2130388063487366 0.0076967702721273 0.1343448739308983 )
( 0.326970275084246 0.1300667890970808 -0.0107815481682446 0.2152896587854924 0.0062343212385478 0.1323929295621376 )
( 0.2152889042266943 0.0979558085468973 0.0002189793653531 0.1319845106619064 0.0089038504539969 0.243859059400028 )
( 0.2219469247575846 0.107367790900957 -0.0022220701026373 0.1399741798350339 0.0114267629372583 0.2472652052534118 )
( 0.2349372640918818 0.1189738518274295 -0.0060716034743656 0.1505109145641561 0.0134736961403335 0.2516437878713388 )
( 0.2513371557194904 0.129476093305314 -0.0098904104516022 0.162166705753328 0.0141824256869106 0.2541728513471935 )
( 0.2634314687085557 0.1359625262159525 -0.0143653589185496 0.1701355895016371 0.0127970065121998 0.2486589752822444 )
( 0.2740663638803746 0.1398790969128864 -0.0182608256695022 0.1762015556996637 0.0110317637436385 0.2399800510001754 )
( 0.2830639293713806 0.142082741976245 -0.0207745413076095 0.1812033934331326 0.0087480863266334 0.2286331079989073 )
( 0.2908237846498602 0.1430892592282629 -0.0226425818899491 0.1851990491765892 0.0061655882314749 0.2170856078568233 )
( 0.2977881293230755 0.1422583272576593 -0.0231559987301829 0.1882123959468008 0.0045021178677072 0.2055278880886758 )
( 0.3029265246803416 0.1403566026941277 -0.0217391292583795 0.1909720494792325 0.002864726531224 0.1929487486438064 )
( 0.30481536290963 0.1373513756334936 -0.0197963194848143 0.1928567744108519 0.0015819657535847 0.1814418937068898 )
( 0.3056620849133976 0.1331299986014063 -0.0173867777123765 0.1946014447528437 0.0008221834724563 0.1719384633552867 )
( 0.3047630689172194 0.1275963801160496 -0.0149206866461037 0.1963552974439718 -0.0001279633315199 0.165240730230837 )
( 0.3012032976859296 0.1216499771129246 -0.012276455295271 0.1976573889524047 -0.0012677804016561 0.1606405650836809 )
( 0.2970128287303737 0.1162945102975733 -0.0090902538386411 0.1986511126854905 -0.0023965608283337 0.1580661218837499 )
( 0.2925631552914736 0.1112528928808826 -0.0074233855557691 0.1992916567988181 -0.0039301761954668 0.1569889140861193 )
( 0.2872865739648567 0.1067442788539178 -0.0062535442323783 0.1996931376679177 -0.005813967727391 0.1567670051898238 )
( 0.2813847717770815 0.1025028917953912 -0.0049219090354544 0.2002038938703949 -0.0077569676065724 0.1573310024160509 )
( 0.2755686493507868 0.0986625102672979 -0.0040661620591013 0.2010500569787076 -0.0100149069479786 0.1582030940462059 )
( 0.2189155394702527 0.1124975657026419 -0.0046360123227734 0.1476201035553735 0.0126085377201889 0.2466128824682825 )
( 0.2261782340570359 0.1222401860508735 -0.0101373271933766 0.1568284478600387 0.0138466662563849 0.2503011130354999 )
( 0.2398958741470052 0.1322413437072103 -0.017744470123091 0.1670380677770383 0.0128434934591234 0.2517571061365753 )
( 0.2543620530741864 0.1394865013102079 -0.0239530711543308 0.1768047278164048 0.0106115412370435 0.2507067542024632 )
( 0.2631351433521944 0.1426015259704048 -0.0277063146846102 0.1826751854980564 0.0077228613253064 0.2436098911618934 )
( 0.2696352525081854 0.1427516331762046 -0.0289946114478778 0.1858234328652731 0.0049546074306693 0.2334843093060305 )
( 0.2742628829183574 0.1406496368272339 -0.0281252001393137 0.1873395247131958 0.0026292329731718 0.2210530397971969 )
( 0.2768226611887695 0.1371712576943551 -0.024566225730587 0.187569060262566 0.0005806014860869 0.2092355462024103 )
( 0.2776572409805543 0.132227685160675 -0.0195528867969593 0.1870705910597815 -0.000628015075682 0.1981214416349728 )
( 0.2777112477054541 0.1262932504521154 -0.0134816937786554 0.1865170045794339 -0.0011825776473734 0.1873957919915923 )
( 0.2747896531513893 0.1192633303125072 -0.0073307622080786 0.184439874994948 -0.0016237734178569 0.1781366531024296 )
( 0.2703734304095558 0.1118911906695495 -0.0013774674531375 0.1828744821820814 -0.0022525692444563 0.1718055828089376 )
( 0.2660931608071943 0.1054585383787663 0.0043312494610097 0.1823418223417271 -0.0036115700880596 0.1671966661378257 )
( 0.2618197188162856 0.0996889631410031 0.0087058053056204 0.1817190154201967 -0.0053232525260424 0.1649704727712368 )
( 0.2580863201914631 0.095419069530447 0.0122803107277125 0.1817825831747358 -0.0071558240824412 0.1646530484513372 )
( 0.2551073824992855 0.0930977869673277 0.0151667575870881 0.1826991768674588 -0.0093215796506643 0.1645263810000597 )
( 0.2522974502372659 0.0919056220861866 0.0173821617315267 0.1838581766571421 -0.0114032667600224 0.1649169213309239 )
( 0.2502387206482375 0.0916602856685696 0.0193714385338541 0.185692222285558 -0.0137390548743189 0.1660297116335714 )
( 0.2486916496723856 0.0925538697802624 0.0211615606647295 0.1884536032470258 -0.0162561441330678 0.1677020767078073 )
( 0.2192593155836621 0.1230413823525839 -0.0118541232751916 0.1610747422517441 0.0140723739040048 0.250145264969353 )
( 0.2256071361773993 0.1307188828575105 -0.0186004270756911 0.1696593197177389 0.0131107932967372 0.2516418590194927 )
( 0.2372172586847583 0.1373308313392562 -0.0264029685041871 0.1781972896735542 0.0102466475488718 0.250103712188912 )
( 0.2474789192915775 0.1403108837622989 -0.0300803242808476 0.1851310195073671 0.0065762621592891 0.2448470246872288 )
( 0.2511350715704919 0.1390455396535447 -0.028771075806312 0.1874264759073388 0.0036194969721225 0.2347514868721847 )
( 0.2533781448430988 0.1354045811270564 -0.0242417877244594 0.1870640829472199 0.0014035755536375 0.2223570083870698 )
( 0.2542034114601405 0.1299600893516017 -0.0166780853795979 0.1850430032522202 0.0006434066173915 0.2076423593369892 )
( 0.2528098239387816 0.1233809201110667 -0.0072762978711066 0.1814877873128182 0.0006643610419332 0.1947991749437748 )
( 0.2512468030538189 0.1168874836680907 0.0017888657114767 0.1775008953180332 0.0003052481641871 0.1835444197864514 )
( 0.2501276481951962 0.1104201883568102 0.0102078868349807 0.1739755802819655 2.363300625318605e-05 0.1732319067273861 )
( 0.2488988367924787 0.1044777831470905 0.018271398427539 0.1711383984378627 -0.0008801361292335 0.1650314292588524 )
( 0.2472522157850563 0.0999553862013274 0.0258240567982321 0.1696599043642711 -0.0023245706073413 0.1598171635994197 )
( 0.2460970185781383 0.0974393143189153 0.0316628718369285 0.1695416544098108 -0.0044001616626986 0.1570713477644501 )
( 0.2458634226051157 0.0969053199827909 0.035842579532781 0.1707207785906944 -0.0069242834207767 0.1566032725426798 )
( 0.2462463561599108 0.0981113871802524 0.0391846066476607 0.1728207259621723 -0.0093508980313579 0.1571377329947643 )
( 0.247628160699652 0.1013004801762172 0.0421378813399608 0.1758056993975927 -0.0118011985125128 0.1584149422130058 )
( 0.249561772971807 0.1058596489045634 0.044109122325361 0.1795292009096208 -0.0140838889440408 0.1603875592328537 )
( 0.252747305397129 0.1115762636251355 0.0453694585113806 0.1842433707043643 -0.016586948703956 0.1628376379553985 )
( 0.2570795852824456 0.1190685672498971 0.0461155512213053 0.1902933058076265 -0.0193822575254497 0.166151299934477 )
( 0.2162097284034579 0.1284764640619806 -0.0171513488882947 0.1713527283841694 0.0130694296414244 0.2523932417250126 )
( 0.2197667658340008 0.1326587789948579 -0.0226134592320341 0.178207616537279 0.0109319537975411 0.2510967859400713 )
( 0.2273870699289463 0.135017411406938 -0.0263128093473379 0.1840943096424743 0.0078698031274463 0.2454162824783684 )
( 0.2333700845392979 0.1341403198228712 -0.0238735506717503 0.1875143044629489 0.0046563264106115 0.2352233801850501 )
( 0.2340232140721174 0.129739470239092 -0.0166622788658675 0.1863958619254254 0.0031499854760691 0.2205344531020046 )
( 0.2353992387344362 0.1239164218653557 -0.0070574532443145 0.1831768047257332 0.0024891181274346 0.2051861195065451 )
( 0.2363259010375809 0.1177994827110952 0.0042291873170815 0.1787344629783506 0.0025987245436697 0.1887468496958068 )
( 0.2358166458605582 0.1114738695718995 0.0155314043533441 0.1732473063196165 0.0033365800053939 0.1738971790550393 )
( 0.23635737973386 0.1064950292146443 0.0256587523735708 0.168397396631161 0.0031817969050547 0.161271966008294 )
( 0.2376684665263812 0.1032379550117194 0.0347580396999831 0.1648524954065003 0.0021904526866998 0.1508569424898037 )
( 0.2398123740657813 0.1019657633615122 0.0426259287687311 0.163519153922476 0.000392984658151 0.1442486214822346 )
( 0.2425995463075083 0.103169326717606 0.0485377369736557 0.1640532452935951 -0.0022804723038222 0.1409908473042672 )
( 0.2459596274272517 0.1067419255755923 0.0524318680633622 0.1663049637731165 -0.0053689434666506 0.141421712861794 )
( 0.2500369840969776 0.1127340982280111 0.0546120259634044 0.1708271001522777 -0.0085323101046204 0.1436956456115711 )
( 0.2550972592761641 0.1206032964675611 0.0556057641627207 0.1765397431487187 -0.0119704654375974 0.1466415953581753 )
( 0.2611375653624979 0.129512970725293 0.055862287241183 0.1825757254228912 -0.0150917848382079 0.1507602526932262 )
( 0.2679860240186145 0.1393813386624378 0.0550851837385124 0.1893119990100724 -0.0181223874349715 0.1557396667024997 )
( 0.2759805053566905 0.1503865888642412 0.0531998986316548 0.1969056674870561 -0.0213462231200123 0.160949011803595 )
( 0.2855505428180773 0.163207211957911 0.0504308045728806 0.205848201342508 -0.0248226519484575 0.1675053820849922 )
( 0.208298201205644 0.1285667105009805 -0.0179968447275176 0.1794072451818443 0.0112133654712936 0.2530382328367665 )
( 0.2096347199176756 0.1295520941978794 -0.0198033776351228 0.1844352700063919 0.0097006705471137 0.248208629548208 )
( 0.2151483407140093 0.1287013255158847 -0.0178615247941785 0.1873337182789514 0.007506253871205 0.236258581394881 )
( 0.2191686643067117 0.1250096757331366 -0.0096777563255658 0.1870196452271278 0.0056031699838632 0.2196896354445473 )
( 0.2212149712260822 0.1196737177842695 0.0011275343617938 0.1835689214725995 0.0050436773018571 0.2007626749874021 )
( 0.2234889106933393 0.1140908493080735 0.0129110807434212 0.1784525470795683 0.0050002661411044 0.182087389816203 )
( 0.2250910750690199 0.1091208746713254 0.0245420042008332 0.1726120161087793 0.005108659861493 0.1639681526810197 )
( 0.227650657822555 0.1056481040349494 0.0352140792980202 0.1677523069658563 0.0054708329615384 0.1476684813764746 )
( 0.2317677859397046 0.1046474095843463 0.0445279996859558 0.1647560469641038 0.0049278927327629 0.1347392479638805 )
( 0.2362923280727736 0.1061214438914397 0.0516779306293759 0.1635287421650745 0.0031202899268578 0.1268494562386182 )
( 0.2409461950097535 0.1102593514329197 0.0565184768384006 0.164350987076503 0.00018402305049 0.1240270122760017 )
( 0.2471767290931851 0.1175863812028012 0.0590824901150902 0.1680037169005298 -0.0039641169089669 0.125348383681397 )
( 0.255101047087882 0.1274943430870081 0.059738017688644 0.1739572418564688 -0.0082877868309977 0.1303581954275019 )
( 0.2639907438328013 0.1391436784488832 0.0585735298841794 0.1815741586547315 -0.0125788601988912 0.1368459164607008 )
( 0.2736721205485489 0.1522489433062293 0.0561129786518296 0.1907172071993328 -0.0172884902439656 0.1441639690822516 )
( 0.2840785264142677 0.1660198292557714 0.0529677763862462 0.2001857036391151 -0.021286598500271 0.1517509213999475 )
( 0.295378303265835 0.1802488865967531 0.0491379084756345 0.2097526264099165 -0.0251320144781743 0.1598028107612384 )
( 0.3081607688703101 0.1959176907135507 0.0440660314465283 0.2201820028443023 -0.0291946897782647 0.1687691183211057 )
( 0.3226640573675277 0.2130515547982259 0.0377797217098857 0.2315620812445288 -0.0334057083891517 0.1785426012350928 )
( 0.1989741057981796 0.1249554322672507 -0.0144514038011205 0.1853011757351315 0.0102209188797505 0.2532214098798804 )
( 0.1997117296912789 0.1235120196938136 -0.0117408009769815 0.1885320660080967 0.0095509867738888 0.2427075953430507 )
( 0.2058368031967141 0.1210372445757247 -0.005066397155744 0.1891389229076991 0.0083551708626786 0.2237674005211262 )
( 0.2105401118944229 0.1165183704881199 0.0060732789895921 0.186336595594737 0.0073997322004233 0.2011337120152863 )
( 0.2141670646595501 0.1117480732177851 0.0179539366779522 0.180975565478627 0.0074161032982347 0.1779633853701908 )
( 0.2181126759230497 0.1079832766842866 0.0295623583735545 0.1754654519952552 0.0077305484193924 0.1561611052486755 )
( 0.221673204671411 0.1059426625182135 0.0400412605423152 0.1709257776020694 0.0075508188291597 0.1370028690871113 )
( 0.2258093907275465 0.1058085882784468 0.047984705871081 0.1679994042183477 0.0068147748657691 0.1222562368007777 )
( 0.2316150185716272 0.1087681060660075 0.0543869913890981 0.1674584729248109 0.0049314293740963 0.1121148907670581 )
( 0.2383265788666321 0.1152260039458277 0.0584440671952427 0.1692047163468653 0.0016562938475275 0.1081854526666483 )
( 0.2460827932938336 0.1252780366858389 0.0597886370605124 0.1730883100074128 -0.0028655941257863 0.1108433990747814 )
( 0.2567641892834091 0.1385067297946952 0.05911652036456 0.1799503609694354 -0.0083105514134411 0.1187146384845718 )
( 0.2689123782490017 0.1536964485706553 0.056068611854167 0.1899769557921494 -0.0140798146503221 0.1286200396153235 )
( 0.281989284808202 0.1703637347518312 0.0512485221230605 0.2016302594378937 -0.0198173545218396 0.1392448346638823 )
( 0.2957947915074856 0.1875904226148597 0.0460143977760123 0.2136553605019294 -0.0250588727888235 0.1499143755073163 )
( 0.3103140218565244 0.2053999749346437 0.0401968108728066 0.2260751640802268 -0.0295887036633035 0.1602657693056821 )
( 0.3259457050091508 0.2238425091641253 0.0337334291113366 0.238767646142844 -0.034110738499588 0.1712245531410582 )
( 0.3432962217482715 0.2435944226870496 0.0263843120702 0.2520424261857895 -0.0386683605939902 0.1833676814085306 )
( 0.3623019414996352 0.2640958326665486 0.0181007129036688 0.2655755001695245 -0.0432865810885034 0.195508265530066 )
( 0.1900613119445945 0.1189341401437686 -0.0065083807310227 0.1890815392874844 0.0103737074627071 0.2511365785650353 )
( 0.1911603737515814 0.1160366506786342 -0.0006024549008689 0.1910524276064972 0.0104811655990577 0.2343075843237349 )
( 0.1989779773893646 0.1132767467601072 0.0079705069751212 0.1897445396971842 0.0096491301981211 0.2086170245727561 )
( 0.2055680922126935 0.1097663771615042 0.0192332019857402 0.185652139606751 0.0089399433927864 0.1812864661590487 )
( 0.2109783773762107 0.1066825987089976 0.0308998815315799 0.1805154186281569 0.0095972548660532 0.1546696656542575 )
( 0.2158007779720783 0.1050928652549608 0.0403415071825009 0.1767317627357175 0.0095910287500404 0.132211836922883 )
( 0.2202033638199476 0.106040749877575 0.0479264027069676 0.1744810079124212 0.0084098322537622 0.1138964881952598 )
( 0.2260189796179346 0.1096308445650648 0.053466927720568 0.1734063723203754 0.006398468360782 0.1020106507074719 )
( 0.2329504963078149 0.1165700915433764 0.0568824393030979 0.1750317063673444 0.0030176993319551 0.0971045954957809 )
( 0.2416576099140378 0.1278389473644616 0.0575933799655323 0.1805554597125428 -0.0020726329182281 0.0983743794158647 )
( 0.2534083209266493 0.1434928291633917 0.0557575992673459 0.1885004743531005 -0.0081524090863028 0.1062836277687288 )
( 0.2680903390231104 0.1618651151408924 0.0523229682940527 0.1987077242448388 -0.0145880135889394 0.1196077375984598 )
( 0.2844471146550623 0.1822274902755264 0.0462493781280408 0.2129229206794525 -0.0216530135602342 0.133606640607808 )
( 0.3013330877359055 0.2035319898501026 0.0387973298938469 0.2285738641177316 -0.0283093693476457 0.1477527143287114 )
( 0.3187693817622075 0.2244342581625382 0.0318176413588859 0.2434646329196095 -0.0337701682170906 0.1612764935942451 )
( 0.3368540042244102 0.2458731420140131 0.0241832171400637 0.2589445404637098 -0.0387418284593372 0.1736804467783212 )
( 0.3555587873082214 0.2677277739598944 0.0159378940679895 0.2750171772827372 -0.0438967355943274 0.18634568345015 )
( 0.376636915831087 0.2905653001264789 0.0073015935891993 0.2911180868284804 -0.04885001644779 0.19942599302273 )
( 0.4003146338053024 0.3144670635534952 -0.0019543955215328 0.3070190706924621 -0.0535276942099324 0.2123082407312811 )
( 0.1831166548868393 0.1122506534096858 0.0036609586327424 0.192567416315351 0.0123378102003721 0.2470954430928587 )
( 0.1863709436195131 0.1092106856317638 0.0102925063848121 0.1932566841775436 0.012317088022581 0.2237487794270914 )
( 0.1948321273879052 0.1070156528699233 0.0187014402971297 0.1902767162967648 0.0111402706197357 0.1912682159169169 )
( 0.2025669291656164 0.1052849735409185 0.0291481471002079 0.1865930790336229 0.0105955376257225 0.1606382454016769 )
( 0.2090055618240348 0.1044290643104237 0.0383910635161147 0.1836909187448323 0.0106570548591326 0.1331211550874945 )
( 0.2137002843933077 0.1050425566657865 0.0452456823342281 0.1821405958541624 0.0097740964459559 0.1111814213672896 )
( 0.2182071080851292 0.1084565611760979 0.0503058283849175 0.181573372985817 0.0076253384062588 0.0951196913257069 )
( 0.2250759157677653 0.1158196696765412 0.0534289190693485 0.1829125247966627 0.0040395112044329 0.0871949647224937 )
( 0.2335650702504814 0.1270715030221486 0.054133015773672 0.1873343014915218 -0.0008681937080691 0.087888508050451 )
( 0.2453945155506032 0.142972766822987 0.0523983636869217 0.1959661079843565 -0.0071994913513444 0.0950707921003268 )
( 0.2612183413926177 0.1632482255129707 0.0481320269324139 0.2081930446808614 -0.0145841470488852 0.1081961716817663 )
( 0.2787932314869331 0.1861108893055637 0.0419233845141397 0.2231425625670001 -0.022307494135965 0.1253283038328794 )
( 0.2984748631265749 0.2108449731916845 0.0342204114430434 0.2410032174452226 -0.0299873151903699 0.1428948287329904 )
( 0.3187353607272411 0.2357987614363262 0.0257514768760056 0.2598685020499372 -0.0369443582766706 0.1593704631177011 )
( 0.3387888882052937 0.2602313122157978 0.0171093331234077 0.278736943964238 -0.0429751930361165 0.1739306453853541 )
( 0.3595870165106759 0.2851250404667464 0.0082156726407171 0.298110013051704 -0.0485247797873935 0.1873174521611332 )
( 0.3818864255648663 0.3107188239133908 -0.0008008139918169 0.3180605356332362 -0.0539645448272566 0.2001981146022105 )
( 0.4076546607506673 0.3372812623127397 -0.0101197737553841 0.3374615025882126 -0.0590518338753593 0.2125122192809072 )
( 0.4379531843284847 0.3654412301302766 -0.019771724465082 0.3558634421835679 -0.0632735673166042 0.2243831068763936 )
( 0.1788219648721335 0.1066521772125854 0.0134545053346872 0.1959776211208685 0.0143798591127148 0.2414826059591286 )
( 0.1838641062741205 0.1041630551874369 0.0188984138599539 0.1954347445519853 0.0136961651130979 0.211986112247489 )
( 0.1926529412212521 0.10286254705178 0.0266065338910366 0.1925022725579094 0.0124330147721499 0.1744494996103347 )
( 0.200001740973747 0.1026872245423406 0.0348597962899847 0.1903490429248967 0.0116040918165665 0.1419319724097255 )
( 0.2051578305837831 0.1035849641494369 0.0409593719944471 0.1889765368657087 0.0105889012708815 0.1141835752613362 )
( 0.2097507599824887 0.1063934016042245 0.0457826441051323 0.1894687305601488 0.0086172822306062 0.0934960214153498 )
( 0.2155775552629878 0.1124703723370134 0.0489071242606422 0.1917157715677585 0.0050685285835964 0.0813355581579805 )
( 0.2231397933224508 0.1228563095146481 0.0497761531213785 0.1956476623670176 -3.9696665053400026e-05 0.0786494333608679 )
( 0.2339578372974461 0.1379887348309702 0.048668315048134 0.2027608078289978 -0.0061138522257725 0.0844763895698369 )
( 0.2485006487644216 0.1581076489793825 0.0451833743984819 0.2143521645832399 -0.0131011264411288 0.0963491712388608 )
( 0.266756522502982 0.1825479704347358 0.0392761478973326 0.2308063560938039 -0.0213336406804274 0.113638382407847 )
( 0.2878960271411128 0.2102974381862102 0.0311500433859965 0.2512653138202206 -0.0304479473416026 0.1339019205354953 )
( 0.3098517072857656 0.2385031451155436 0.0224446214575506 0.2731357176599051 -0.0385353914646139 0.1529919872919365 )
( 0.3326485053590904 0.2667038961146328 0.0132445455718666 0.2957415966403842 -0.0458618756282959 0.1703460599987749 )
( 0.3557637763339539 0.2952586308771111 0.0033079650936412 0.3196710829074099 -0.0526243720584444 0.1850593309498379 )
( 0.3800466544230746 0.3243153731944244 -0.0061524278809815 0.3439588749651516 -0.0585223266049199 0.1982975060243818 )
( 0.407709979777778 0.3546732684741461 -0.0154999614794651 0.3683967854099733 -0.0637209917776684 0.2102717579303235 )
( 0.4397012041552702 0.3860608405559492 -0.0248193919730121 0.3914301274086812 -0.0680599199330097 0.2210993345685496 )
( 0.4781089072463176 0.4199879644675218 -0.0341148952444955 0.4132813690687802 -0.071234550711781 0.2315650132475349 )
( 0.1754020646604061 0.101672342939123 0.0211094696985263 0.1989165767546381 0.0153505079661383 0.234006721393685 )
( 0.1816215243764894 0.1004755331438859 0.0252436168880139 0.1985130808220718 0.0145592656370716 0.1993423961955712 )
( 0.1906925045988414 0.1006128935692798 0.0308945444582057 0.1972613519148112 0.0127519950493347 0.1579249939631518 )
( 0.1962148847649266 0.1012423175644955 0.0361917993954786 0.1965621921318772 0.011092185596537 0.1248265240831023 )
( 0.2000076915831337 0.103396473731964 0.0403593675334307 0.1968953098525723 0.0091325822567136 0.0983470112379474 )
( 0.204695244692356 0.1082704153698556 0.0433734393663249 0.1991814958666643 0.0059188839252559 0.0803800542702911 )
( 0.2117021991576347 0.1171109350512707 0.045100238107686 0.2034271118518919 0.0012100942040632 0.0728077309030582 )
( 0.2205481346914945 0.1305369178143205 0.0448087437769871 0.2101328714936372 -0.0048633655172296 0.0751002666407294 )
( 0.2337930010928131 0.1493340003171717 0.0424659588688846 0.2205850995479691 -0.0119911805049909 0.0851021479656808 )
( 0.2500518054509572 0.1731500285923583 0.0373675043063418 0.2364525433778141 -0.0200061212832012 0.1006710048689611 )
( 0.2698760573558056 0.2013130339858499 0.0300637871439562 0.2575024232134917 -0.0290913727727423 0.1208579195705278 )
( 0.2937703814530286 0.2331456388433661 0.0211299369091784 0.2827142483808242 -0.0386803573948513 0.1426559894666775 )
( 0.3184963544971075 0.2654916816183774 0.0112633304119284 0.3095551643488692 -0.0472631513687824 0.1621100176073176 )
( 0.3450862494351625 0.2983265108981045 0.0012806059075259 0.3374499737753451 -0.055000187283574 0.1795277356513223 )
( 0.3722836379362716 0.3316120115151154 -0.008744693874894 0.3672191758301931 -0.0621132295611156 0.1944831259288724 )
( 0.4004318977066863 0.3648614184200278 -0.0180601969312921 0.3968709820615215 -0.0679029026823467 0.2066595546160224 )
( 0.4331229991504733 0.3998753031535574 -0.0270514497087589 0.4258063551451633 -0.0722748027494924 0.2168148823541986 )
( 0.4731193004577749 0.4378509817902904 -0.035981806448671 0.4534877318550953 -0.0755930246494883 0.2263292813563386 )
( 0.5221826155800461 0.4793742407149389 -0.0452429726693625 0.4796412469858861 -0.0781510938032191 0.2355376738202564 )
( 0.1728226061997269 0.0976587684558112 0.0262320470950433 0.2024089254749837 0.0167218824854495 0.2272055643357013 )
( 0.1784560119964467 0.0975765761359865 0.0283675601529102 0.2029129011904571 0.0150771408598499 0.1879434356735146 )
( 0.1865035280613809 0.0990212123371176 0.031845828940724 0.2034300350448288 0.0121318814306066 0.1435424812280051 )
( 0.1911505896730246 0.1007064908182458 0.0351945685640779 0.2048773168045323 0.0096361243950994 0.1099621469206221 )
( 0.1949848474136591 0.1043677313884684 0.0381089812006466 0.206369955397387 0.0066332992253679 0.0857838893709586 )
( 0.2000744599764178 0.1112588203259598 0.04009129210477 0.2095248051593191 0.0023759954996397 0.0716551541299971 )
( 0.207682812375208 0.1226329509203413 0.0406268700167969 0.2154975017640833 -0.0031744094742956 0.0681933498330617 )
( 0.2175704913919995 0.1387442271351371 0.0393854644422787 0.2261085749697769 -0.0100937223592729 0.0745607801280708 )
( 0.2315774364230856 0.1605657207584143 0.0358470478682911 0.2416128747842933 -0.0183040420342625 0.0880058925526908 )
( 0.2498849374399067 0.1878645793813566 0.029776718435553 0.2615634583761495 -0.0272044355686117 0.1062303540245259 )
( 0.2725412449501355 0.2202363682098232 0.0215896582949304 0.287450783932708 -0.0372615812874304 0.128800455355966 )
( 0.2984740686989633 0.2558683114643406 0.012072556692347 0.3177157501392356 -0.0469171782116558 0.1511487807148999 )
( 0.3261895081317036 0.2925724415386626 0.0017172741484325 0.3503326679496226 -0.0557331236175475 0.1706177623224049 )
( 0.3564484184640278 0.3306679125046394 -0.0087684870759204 0.3853147684335405 -0.0638473268688182 0.1876451698561666 )
( 0.3869096640194873 0.3679816905364311 -0.0182336812086535 0.4205865053358072 -0.0704341726941898 0.20097565403281 )
( 0.4195254906593997 0.4057022220696159 -0.0271158265985652 0.4551716522436003 -0.07563578724398 0.211535135889758 )
( 0.4589888321409172 0.447428272555405 -0.0361644968445162 0.4906076745599437 -0.0798833988247476 0.2207359779013063 )