/*--------------------------------*- C++ -*----------------------------------*\
| =========                 |                                                 |
| \\      /  F ield         | OpenFOAM: The Open Source CFD Toolbox           |
|  \\    /   O peration     | Version:  2112                                  |
|   \\  /    A nd           | Website:  www.openfoam.com                      |
|    \\/     M anipulation  |                                                 |
\*---------------------------------------------------------------------------*/
FoamFile
{
    version     2.0;
    format      ascii;
    arch        "LSB;label=32;scalar=64";
    class       volScalarField;
    location    "0.0021";
    object      k_LES;
}
// * * * * * * * * * * * * * * * * * * * * * * * * * * * * * * * * * * * * * // 
 
dimensions      [0 2 -2 0 0 0 0];
 
internalField   nonuniform List<scalar> 
13597
(
0.1748928254961621
0.1724172250408991
0.16705877261492
0.1637944639724662
0.1641049449159877
0.1648387307275663
0.1665173781503448
0.169511882639823
0.1729705233951661
0.1764047768883492
0.1806649359013716
0.1866052945492701
0.1932108609639705
0.2006467665584086
0.2092477704543711
0.2192798199099656
0.229739644953505
0.2398421232550841
0.2516576517601974
0.1838372715861919
0.1819191123724742
0.1762182085387798
0.1742783925465914
0.1746419238499753
0.1748430080751507
0.1751598764046826
0.176647403393096
0.1789110685776565
0.180321451865771
0.1825249658862633
0.186408259245127
0.1911582861754272
0.1977693472164195
0.2058059061299585
0.2141588908208331
0.2220205933027585
0.229911122554813
0.2386292021173209
0.1910099547586405
0.1884990791623181
0.1820991126881299
0.1788788980782754
0.1772637475083753
0.1759543129040504
0.17413477525815
0.1730378229883566
0.1730809685932375
0.1737730461717725
0.1757718901410014
0.1795639166327231
0.1849004705229702
0.1910036030537016
0.1969397854165091
0.2018947918054086
0.2056094661896049
0.2087071008774363
0.211421236944366
0.1938572303278795
0.1905793473850366
0.1836295203627083
0.1791059071272313
0.1765772614052637
0.1746705681944396
0.1732075132524813
0.1729627946019394
0.1737350040163021
0.1751075375716444
0.1770969421206694
0.1802449895725746
0.1834176610616675
0.1863158694839139
0.1881398221296558
0.1887302513429514
0.1886082345222777
0.18790869315606
0.1869417216369994
0.1955684244485566
0.1909611699360134
0.1843905658534307
0.1812935560528476
0.1805210146109046
0.1806342740079417
0.1814443191709735
0.1832418408891568
0.1845135774381697
0.1850735387362708
0.1855877132801263
0.1864986388508961
0.1867796852579282
0.1867105267325323
0.1863499419166142
0.1856449335581703
0.1847901164270972
0.1840223694000986
0.1834032154128247
0.1971160164256368
0.1927902260502905
0.1888289296216937
0.18958063375586
0.1916995991819521
0.1945386873636677
0.1967610597162329
0.1989483048669192
0.1998770416504123
0.1993756555440326
0.1983245502938201
0.1962784953011856
0.1946650210249517
0.1937409246487261
0.1933534543807949
0.1933369552764696
0.1939646660558532
0.195085072752341
0.1966310357807069
0.1998269302179314
0.198171671154083
0.1987292475435442
0.2033283242742481
0.2078849993576344
0.2123109192041453
0.214604182218495
0.2154627673001499
0.2151372238645701
0.2127771402036566
0.2099131744323757
0.2068689634763343
0.205201269869261
0.2050698580459822
0.2061073497949105
0.2081154642868009
0.210818621225632
0.2143243360621538
0.2187199412444614
0.2059137330416628
0.207858672875961
0.2125320766309283
0.2200174718008745
0.2258175173802766
0.2295455023339946
0.2301357324566574
0.2295416759535776
0.2280164866241635
0.2237567236179515
0.2203407948740803
0.2185975540654513
0.2178746867521131
0.2191730305855103
0.2220538189997015
0.2263152739612746
0.2314385340002983
0.2377387449308828
0.2452203848687509
0.2147730418738601
0.2202617172547492
0.2284667744861304
0.2372721891546021
0.2429125851615729
0.2448561520732423
0.2432223815780315
0.2406120624529764
0.2374649464493298
0.2335797262467356
0.230709837794469
0.230319411599093
0.2313283641568336
0.2347953692446692
0.2401186096396905
0.2469043701471073
0.2548472261965348
0.2642281977521891
0.2752201505730143
0.2256402978572856
0.2339198221959513
0.2438518625975515
0.2525015281876641
0.2561004867456254
0.256404938786202
0.2541003251353824
0.2501976103779905
0.2462480575341851
0.242839010549012
0.240843415802925
0.2416415024527204
0.2452353211307058
0.2515005813194077
0.2597283564551057
0.2696229598186023
0.2810310093639954
0.2937091624960629
0.3080057723613588
0.2365601198220928
0.2457006860293508
0.2571225806496419
0.2647981277175056
0.2657587050104555
0.2646159023723162
0.2623917416791929
0.2586429018736068
0.2544935447756792
0.2514403305039444
0.2510230437770484
0.2541410203547766
0.26053597633303
0.2696607120968508
0.2811925711976092
0.2946290109897069
0.3096872839141846
0.325622999190139
0.3433584852409966
0.2466520874338206
0.2564816946543913
0.2679694845873462
0.2738199085924525
0.2735645425693288
0.2708398852595494
0.2678486294322182
0.264390983132041
0.2607745276783577
0.2593318132934704
0.2612160421789419
0.2676353147026969
0.2772582076692462
0.2898434932211869
0.3051123614137908
0.321980737983159
0.3402836212753871
0.3600727956979905
0.3822007621787168
0.2559110251479954
0.2663397224113824
0.2765195359717332
0.2800629055039372
0.2788774561819706
0.2752816618972917
0.2716106246918428
0.2686288024160324
0.2668397138189369
0.2674560423483839
0.2720930858728317
0.2819447667916859
0.2953947007512217
0.3123632646715374
0.3310162186930134
0.3508238062566466
0.373333018494166
0.3980537967869029
0.4246830760171688
0.2636032285555824
0.2731096490901795
0.282744617571769
0.284351191867541
0.2820373927804332
0.2787052246219323
0.2751730983844521
0.2724893189596191
0.2724834888831478
0.2758045706461868
0.2837039369952784
0.2973944424594328
0.3149326486697058
0.3354841701897992
0.3578280081085691
0.3821735071111695
0.4097597880490489
0.4393714275677075
0.470835239954806
0.2690909936863256
0.2778338827475149
0.286857832159027
0.2871250000776419
0.2844532392383997
0.2810889582465303
0.2779984191509943
0.2763274837476775
0.2784887429610985
0.2848810297248395
0.2964549024080619
0.3142077738116037
0.3362238818654505
0.3602469397603102
0.386737948995935
0.4165010320085067
0.4491495970491775
0.4842181956267512
0.5257766605535803
0.2720548324743868
0.2805356887856404
0.2883976117274438
0.2886259360711585
0.2866419142428863
0.2827020861850868
0.2805117760724299
0.2810223049671498
0.2852730313273974
0.2944192829809227
0.3103203005856367
0.3331004429398245
0.3589812983029697
0.3863894084398017
0.417378653607423
0.4523155095837366
0.4909818304635465
0.5362147287293378
0.5955198377369099
0.2731966685175499
0.2812207421246111
0.288748882668765
0.2891689987967375
0.2871502822077869
0.2837216612559496
0.2830849104438295
0.2855827045640035
0.2920059262646117
0.3046095895288469
0.3240581055521593
0.3511698970013863
0.3812895103023808
0.4131816435610157
0.4494004480407507
0.4901506668534893
0.537680601207632
0.5994761400529295
0.6771433160925432
0.2742775294936887
0.2817295020847552
0.2888612179358567
0.2890085948699794
0.2869516005536517
0.2848213996866825
0.2858395945477707
0.2898793738249004
0.2992341736085604
0.3155900368289829
0.3389030741809712
0.3697260069159163
0.4040553633880447
0.4413891075079302
0.483381732270343
0.5311138990960274
0.5926570573179053
0.6743212688427039
0.7534782269488669
0.274282509808631
0.2808626155164893
0.2878448204192994
0.2885094124968231
0.2867802874316376
0.2857896794238664
0.2881394809023336
0.2943621080133599
0.3070453261490083
0.3269972363802411
0.3550198178648442
0.3892675200620418
0.4280692425429985
0.471344232905713
0.5189930435568565
0.5777173197628618
0.6584107134878077
0.7583856680961795
0.8171316751713952
0.2724607264411483
0.2785003701006723
0.2860265777694366
0.2871587955102139
0.2863324127361919
0.2868556392915766
0.2907174679738549
0.2991688488959205
0.3147140613644985
0.3384371933338729
0.3706208446319904
0.4095265470266445
0.4532811115750436
0.5012921874547084
0.5585335999206983
0.63178481200684
0.733254918820037
0.8432969762498442
0.8640362818309123
0.2697598865304427
0.2756516841078563
0.2833862391710163
0.2849862238693744
0.285683407309254
0.2880687763017187
0.2936435900045541
0.303857659128477
0.3223013114416013
0.3497769170887945
0.386394551189551
0.4312500543759887
0.4786085377091607
0.5303731811548915
0.5995516267836498
0.6936500558352664
0.8152930193747133
0.9210659412515768
0.8666496050122594
0.2667617978228796
0.2722963458958912
0.2807324247637051
0.2832271938843044
0.2851777215518803
0.2896000015574912
0.2971328330206254
0.3091004334191806
0.3306835035086755
0.3615868124397488
0.4018346645561184
0.4500207248733721
0.5013642088365641
0.562268502436661
0.6435894225131503
0.7603293466210816
0.8980845232095203
0.9854941241416322
0.8097790221082789
0.2633614722940814
0.2689564975082847
0.2783691232351721
0.2816169164435613
0.2845109624210947
0.29080179255027
0.3005902272963304
0.3146300774397053
0.3393412269639674
0.3744801144525534
0.4179490311997874
0.468261108122994
0.5241891295560848
0.595550047398863
0.6952396359127603
0.8322626003721452
0.9775061775861072
1.0071956670732518
0.7435468209074627
0.2591779736595962
0.2651134658721258
0.2758389976088802
0.279981699877974
0.2841576686894016
0.2916813398264862
0.3028546415705629
0.3192881023463039
0.3467246369420062
0.3850984985059359
0.4324237701839952
0.4881263245853718
0.5508353140098055
0.6320356509994381
0.7503377015507275
0.9057998707696112
1.0502453688770308
0.9953827755611484
0.6799939582067078
0.2549562811331869
0.2615453901890358
0.2729742085605627
0.2781130546015979
0.2838704144366397
0.2924838562770461
0.3050172015965599
0.3236672389738413
0.3530850856199052
0.3942371896240628
0.4458537899143578
0.5070703217065091
0.5774998428240133
0.6741432991603169
0.8076778604258411
0.9760247433544484
1.1050556953704105
0.9760784930556168
0.609122440445793
0.2513818963364917
0.2585379470546267
0.2704180660244769
0.2763486962646067
0.2835522987889241
0.2938013672435052
0.3076944747526933
0.3279330574144047
0.3597266853975102
0.4049482604035972
0.459855566025806
0.5248971493494617
0.6032472590642075
0.713963427897662
0.8632656776737566
1.0421428948844504
1.1229198652315011
0.9299976101027544
0.5561036513735585
0.2473414992848899
0.2550745135874145
0.2683907434398226
0.2755552339778311
0.2836048978036328
0.2952637281495721
0.3105843489822492
0.3329055777389101
0.3672741914438133
0.4153802617273652
0.4733462952514584
0.5418798297900053
0.6281588699474665
0.7491959904057215
0.916210701960866
1.0996758540289513
1.1292370033704466
0.8776530446169752
0.511360746211287
0.2432439730410101
0.2514928997205207
0.2662078727606055
0.2752018059932808
0.2838363993731663
0.2962208931398769
0.3132899859015103
0.337533342632226
0.3740505303568648
0.4253605415679654
0.4874078303950127
0.558135333089849
0.651230434333876
0.7848757551461065
0.9733629030509832
1.1550186887650653
1.1489894711394948
0.8436833275015627
0.4739202006129422
0.2396896552930006
0.2486762494020576
0.2640322180964795
0.2744058017591185
0.2841837864993652
0.2971263683728374
0.3153106069547062
0.3410939058748993
0.379861023579792
0.4342331218903035
0.4995300540460513
0.5755247506468927
0.680449451982266
0.8235775331256228
1.0247610027625795
1.197250205622686
1.151956902699556
0.8134880882596018
0.4513046198310655
0.2360660096158811
0.2458850215286928
0.2622362106286878
0.2740001410727155
0.2848414089522109
0.2980919116936967
0.3169990644660358
0.3444769587989238
0.385829520442045
0.4414530413378135
0.5085390597165446
0.5926838837501628
0.7065745968601215
0.8601993507845538
1.0687077898300736
1.1969345443368302
1.1116442859763285
0.7828991742230735
0.437881809010134
0.2323929550450113
0.2427853120157947
0.260712821989072
0.2738878124263695
0.2853761297987019
0.2993989542275634
0.3191580593362909
0.348092111469146
0.3918182408916514
0.4489843443343753
0.5184626315610713
0.6091464400251851
0.7263120838149217
0.8929356414181535
1.1082121822084074
1.1901339392047925
1.068454714379782
0.7550244194859411
0.4281325672574652
0.2289383333498156
0.2401298198273649
0.2593237720663735
0.2730743759615368
0.2856113666223462
0.300834438299542
0.3214394352149736
0.351993987726817
0.3972151217226966
0.4560518886840093
0.5284712033371176
0.6240753653138933
0.7469969377747694
0.9311320533099624
1.1449420494372904
1.2044678119272896
1.0579656798708466
0.7312116838422393
0.4158854560514713
0.2257887890433693
0.2378300226056954
0.2581597254390719
0.2724667434334991
0.2858216307738718
0.3013936893605351
0.3226651210358082
0.3552829762609668
0.4019839287589629
0.4629710645364704
0.5383955181236928
0.6377162129879922
0.7650232338603183
0.9626981962469692
1.179944914643813
1.2256692607574744
1.0594014387665351
0.7143191038139306
0.4021566523207137
0.2233919005470704
0.2361410762612726
0.2570586449437024
0.2718476185555115
0.285943187330369
0.3016934075467798
0.3231791523570805
0.3575666964906759
0.406178387286105
0.4704632928404918
0.54964907901192
0.6510810791032269
0.7813879386247935
0.9861908137979604
1.211086908895737
1.247753382465134
1.0632906518673522
0.7042076920877718
0.3938226587979382
0.2217765610724874
0.2349321534012338
0.2561815537034919
0.2712088835921184
0.2860940671090759
0.3024079113878294
0.3241286234673359
0.3592825062117614
0.4097881889263381
0.4766573093075541
0.5583860879071285
0.6621589394401586
0.7979878296679865
1.0098409522764396
1.234827902727286
1.2608609840319094
1.063325141999759
0.696254623908952
0.3884305011339687
0.2201487445995866
0.233723511558379
0.2557344451785754
0.2710326839024433
0.2863392725555004
0.3031596346285921
0.3252886557422909
0.3609671029205212
0.4132647917929309
0.4812135546043271
0.564879991991279
0.6717102789411867
0.8128170200260454
1.0277608069571005
1.253412239275976
1.2725346331178795
1.0594051238272313
0.68651509628789
0.3820666615098144
0.2184091084966333
0.2324331772372709
0.2550708631177483
0.2709264612252911
0.2866443231982073
0.3041232671166141
0.326981590279556
0.3630578470569234
0.4166250501895893
0.4854280847564163
0.570965147676947
0.6812765525613388
0.8267013562165916
1.0446185557155971
1.269162210144809
1.278753874088829
1.059660399589708
0.6840416255038714
0.3766312118539573
0.2172023989765832
0.2316063161707805
0.2541754726536194
0.2707614838070779
0.2869203645045815
0.3043773125388651
0.3282535880538161
0.3651034996525946
0.4202125474124322
0.4894025007543551
0.5766097470361805
0.69035637250124
0.8426597918966804
1.062499723357904
1.2765809829655923
1.279749589732745
1.0561075554892978
0.6824974816592936
0.3737584968559091
0.2160791327380617
0.2308839108538577
0.2534170978286719
0.2702706968439152
0.2869428619101744
0.3040313982673647
0.3282611709130561
0.3658755615003589
0.422843748065518
0.4925029339810508
0.5808606258369089
0.6973940306712848
0.8576257801912547
1.0814908602426032
1.2797736834787392
1.2756859773482063
1.0461462091967093
0.6755051749483925
0.3729245311041863
0.2146874407252079
0.2299724263299191
0.2529552684700442
0.269762152642706
0.2868670791019969
0.3041511428401258
0.3282508630014673
0.3659774691715585
0.4237779815948482
0.4941387002284506
0.5832767646154894
0.702014933264921
0.8666040230738628
1.0962178660255866
1.2838909817903508
1.2673023519081446
1.0394066030493878
0.6716692188665169
0.3728438352263958
0.2134577869638045
0.2291811248586876
0.252808605350208
0.2695849772275392
0.2868569995329044
0.3046280059414854
0.3287691197667362
0.3669229209752323
0.425653432481602
0.4972114800060323
0.5861848859808214
0.707087155264179
0.8743329393032746
1.1041499031969195
1.283226139830636
1.2565199819907975
1.0308182662083447
0.6672110000870531
0.3729580592379079
0.212383655415464
0.2286520872482517
0.2525476473344652
0.2694992044855563
0.2865645887487829
0.3049991747271961
0.329816125479085
0.3681687259261644
0.427810624565675
0.5017605990453738
0.5907290061068741
0.7123286626230719
0.8807661719704782
1.107582368091306
1.2830275527788606
1.2521950038789658
1.021925728437606
0.6598536521711564
0.3716607540313316
0.2113693925549944
0.2282054860951265
0.2520007131149846
0.269065954020487
0.2862370569848235
0.3052984822290474
0.3306337429451849
0.3685300786664694
0.4278180498065219
0.5041449342216073
0.5946787200003846
0.7153841738627754
0.882722397265325
1.1131932715109392
1.2908614229475897
1.2525721090205817
1.0151620022972103
0.6536387247938402
0.368024427642409
0.2109125523293576
0.2275476821243043
0.2512387365161754
0.2682624089360536
0.2858482704454949
0.3055888861751749
0.3308817276696125
0.3689257892316566
0.4288353098691584
0.50686610787014
0.5983571382728158
0.7195057496320155
0.8861679578046799
1.1186761029522772
1.2893408877390824
1.243442746451355
1.0085167299800528
0.6501973468219421
0.366329974972273
0.2044813928931518
0.2042813507190077
0.2039215308778995
0.2044112264297561
0.2052931787328999
0.2049758397824904
0.2038613198481424
0.2027027567481064
0.200302995013469
0.1967495336854312
0.1928481394991646
0.1891765703992435
0.1863648763323417
0.1833785026569541
0.1805381793501218
0.1784903693789685
0.1770410886682801
0.1757685516988371
0.1747610684415688
0.1888244895103225
0.1866547307874763
0.1853044994789567
0.1864510741026545
0.1868356483382404
0.1869334597682972
0.1868934074309141
0.1859673373230352
0.184561968050315
0.183277236587832
0.1816818440891962
0.1809396287798763
0.1808796638154032
0.1810011938854743
0.1820966325572287
0.1837694384435508
0.1859528418295141
0.188832306868026
0.1918963131204496
0.1769858387091894
0.1748445118918067
0.1747924513663795
0.1783456824854713
0.1799134554197389
0.1809569388028709
0.1819156057786333
0.182223513368299
0.1819934504776654
0.1817902375523558
0.1820285519393157
0.1833602011618882
0.1854912684700574
0.1884870276900064
0.192334143578137
0.1964525017382999
0.2001601013719829
0.2036472371736629
0.2071668308803212
0.1689630079928979
0.1685519999009748
0.1716470054656559
0.1768778630722137
0.178758337822915
0.1799868963253758
0.1805720809192283
0.1807197298741678
0.1809057826027715
0.1812909369640726
0.1827901999278565
0.1856982140872388
0.1898977671319971
0.1949349778283547
0.1997229745656449
0.2042235648461211
0.208361729133039
0.2127740861293515
0.2178905008085943
0.1651659948957032
0.16709633569062
0.1718369127987667
0.1770073870969045
0.1789375985865552
0.1799769219519069
0.1801004526954446
0.1801181565485848
0.18112219843135
0.1828922329633493
0.1863395590002435
0.1912362734358201
0.1975322438205648
0.2049289573780651
0.2118081382647095
0.2183983598363844
0.2251399615580513
0.232321845514556
0.2402963723250491
0.1648542497328638
0.1689677605427499
0.1741527093221271
0.1782893269744602
0.1798508172554898
0.1805469764765602
0.1807446599160166
0.1817677948400005
0.1841869280763453
0.1879991200668595
0.1937652065107358
0.2013211664328185
0.2105831507546364
0.2203880332065663
0.2298052744173642
0.2389790783846912
0.2477040242166851
0.2570488898355968
0.2676881308430962
0.1684400240465969
0.173054494430483
0.1776056290223238
0.1807806100292546
0.1813863652220638
0.1817799554249233
0.1828775331385284
0.1854029941365762
0.1896221823223084
0.1954832235556695
0.2036727682563808
0.2143511473574884
0.2263591850197033
0.2382728167072672
0.249929088791805
0.2610764102012023
0.2717627435450238
0.2831767027636532
0.2955456415930239
0.1740954295436859
0.178364701758442
0.1816710409422146
0.1833406794276111
0.1836717501017976
0.1845396764228421
0.1868722486675536
0.1906911957772226
0.1966091130599206
0.2045945429724764
0.2153735614048432
0.2290905928979926
0.2431615977176784
0.2571000975782906
0.2703191128942395
0.2830411633756546
0.2958755095979259
0.3096356191624638
0.324250676655216
0.181442452057556
0.1846688181967815
0.1856273246386784
0.1860017119551788
0.1864418470190397
0.1881555795636732
0.1918140614502884
0.1975028660989398
0.205363385906253
0.2153679877250895
0.2284156657459869
0.2443184992646778
0.260471587599511
0.2761491508606716
0.2910349890521642
0.3057231114162896
0.3209003562546361
0.3370627811476643
0.3539252874823561
0.1881392645110345
0.1892742032898035
0.1890485387315585
0.1889540362884514
0.1894252002724032
0.1925213040646153
0.1976629542746454
0.2047974811387226
0.2141463332768967
0.2267974787091613
0.2422989380645974
0.2597018674939884
0.2777878083559514
0.2955847533021686
0.3128812741726978
0.3298080159243011
0.3475753557531262
0.3658917721543739
0.3845563105823704
0.1931657684926771
0.1923411544169854
0.1913599197275836
0.191763540631748
0.1935114546842624
0.1977802478566649
0.2036594885985244
0.2120724405694912
0.2234942132775461
0.2381596614114123
0.2558759852301098
0.2759144277650718
0.2961732691311098
0.3163485049168553
0.3361390954532888
0.3554525423780976
0.3754339234159252
0.3961947362560767
0.4174322945219192
0.1973038378420539
0.1949906915770182
0.1931009245243392
0.1946050692149051
0.1977918259792622
0.2028670089899784
0.2099637557616992
0.2205130705850678
0.2341026415926027
0.2502579786045971
0.2707108559166409
0.2933251143354486
0.3155739941870052
0.3379061406373763
0.360180138767048
0.3828223287117778
0.4055082051801894
0.4291574945582718
0.4541393847541612
0.1999225499590207
0.196817244809568
0.1957728371840491
0.19795803435644
0.2023508774251878
0.208732683117576
0.2171897619773978
0.229067082701068
0.2446538898178338
0.2634293777044404
0.2857972948903003
0.3110144895173118
0.335652823943633
0.3600174066414505
0.3854896671194376
0.4115001941643269
0.4379399439823428
0.4657116074853427
0.4952509042276385
0.2017256298232072
0.198522574314255
0.1988617616027251
0.2019004423183635
0.2074796728393318
0.2149980912731973
0.2248624329143233
0.2383538136660473
0.2559466533117454
0.2769826501003312
0.3011858799867778
0.328443202810222
0.3559813702530194
0.3830709436874007
0.4121612784431411
0.4427352693383758
0.4733078384639987
0.5056766405797039
0.54056739145548
0.2037017966156639
0.2003819587261122
0.2014447842202126
0.206242204010471
0.213278173227941
0.2218343639723069
0.2329376586081442
0.2477042587873653
0.2665663982362656
0.2894645648706049
0.3164442389906304
0.3456861007073977
0.3765609978051216
0.4081321029291737
0.4405888932414603
0.4755767896889756
0.5114984576809231
0.5500161452388521
0.5956094029710965
0.2053269649963974
0.2020890311135868
0.2047771044375626
0.2110031415172754
0.219233649414406
0.2289820264510391
0.2410117869948287
0.2568835156162073
0.2766943404343634
0.3019522908222389
0.3313560823164533
0.3636604319689998
0.3986649872545292
0.4347514687216864
0.4710170827605412
0.5091159433671463
0.5518386676379816
0.6021465829088508
0.6646439286554654
0.2053617060429783
0.2033317811201142
0.2090174199007828
0.2158672982840862
0.2247963482197213
0.2352056313311565
0.2484747925276133
0.2661107239696361
0.2874757922347606
0.314609981509907
0.3462706549096478
0.3827311927004823
0.421444398669571
0.4610349004465909
0.5022230970161966
0.546072328133757
0.5975567192726097
0.6645745588205481
0.7435323913413426
0.2042708213612945
0.2042125234549619
0.2131160681059594
0.2207721056602491
0.2298261330589314
0.2412240817335412
0.2559633881809714
0.2747094998052912
0.298218610698641
0.3267305818945459
0.3612090966988485
0.4018639499729524
0.4444173427687386
0.4884826491301169
0.5346876269990993
0.587232123045531
0.6520090487709543
0.7411559364514293
0.8250813499649918
0.2034890313284651
0.2058856110537462
0.2162338106605522
0.2253932280653293
0.235065986641551
0.2468523723500318
0.2625101022701491
0.2826635265953799
0.3083288366168371
0.3387937019343209
0.3764115230956373
0.4202497549166138
0.4676862763444854
0.5164626626038469
0.567925619068669
0.6327365588648951
0.7167916101552508
0.8235767358059292
0.8868539829879842
0.2035921497775042
0.208496807753024
0.2196934736390583
0.229742644285236
0.2401799882753502
0.2524156526168146
0.2683471692977301
0.2897470797112818
0.3174866488751457
0.3506626946345905
0.392572537332149
0.4403988300890694
0.4914987062088863
0.5451560771972931
0.6039483841730224
0.6826806303402542
0.7911955056255267
0.9017938772456804
0.9235709822940176
0.2044104131371108
0.2106203360771877
0.2233631229520214
0.233889175974576
0.2447680575395812
0.2578100868096478
0.2749018290029637
0.2973277361925155
0.3257739844579277
0.3615134927175904
0.4077597409316225
0.4607848211590354
0.5154162674966835
0.5756729228087333
0.6461625768568281
0.741276136349411
0.8702899752709404
0.9768354350904814
0.9253173085183308
0.2050160347496493
0.2119740041340915
0.2267676884397813
0.2380793185702187
0.2492882219646686
0.2625645610179992
0.2810834018478361
0.3050357581718232
0.3344979863928457
0.3726260635339078
0.4221087594674964
0.4794520903570138
0.5387511228305649
0.6058940318165863
0.6882755820250129
0.8066186871915555
0.9565538303393828
1.050447190904627
0.8626419619515268
0.2059848811122737
0.2136239202056148
0.2298987166949396
0.2418614113737812
0.253303731432647
0.2673378631810851
0.2867337645982151
0.3114755632059068
0.3438468231570535
0.385425872905085
0.4378391327907797
0.4994216739746012
0.5644569217562493
0.6383353132154755
0.738033813987782
0.8818283546750022
1.0388013934774116
1.0617373919480428
0.7805616038229062
0.2060973176226953
0.2152361378327863
0.2324554931002866
0.2448137859039491
0.257317066854856
0.2721952212688742
0.2917989933047387
0.3168841948114899
0.3515349532068623
0.3973579965664809
0.4530694675970179
0.5185395334946121
0.5900292643949003
0.6730582980334647
0.7928155542479387
0.9581114851468642
1.1047256134249863
1.0326698932061376
0.7154771288790776
0.2055036744994766
0.2161532868128706
0.2351797448766144
0.2479094024045728
0.2610806949636177
0.2763798160828374
0.2958413176898837
0.3219574104079961
0.3584054408290629
0.4078816110528255
0.4686897261968316
0.537718477683642
0.6144322962705111
0.7123255430667053
0.850132897353418
1.0235361329935695
1.1482248141002789
1.0155054546213316
0.6503530843893266
0.2057577370151804
0.2170701642352644
0.2375458737569828
0.2509015562450034
0.2642107244896624
0.2797011939310596
0.2997518864437404
0.3272184782145618
0.3658910396448208
0.4182414218751058
0.4829939964295312
0.55605984810695
0.6367224102021373
0.7486745666703548
0.9052815136311732
1.081357695139337
1.148289445446262
0.9568774224972384
0.5874108726721495
0.2060799666013076
0.2180314896646212
0.2392782411696397
0.2533117143711128
0.2668628321584241
0.2827323358185202
0.304169282454985
0.3326097556769922
0.3729064207535809
0.4273462143122747
0.4957685726142123
0.5739941234987077
0.6606032079263987
0.7818629433730859
0.9538016585242668
1.1341786140430807
1.1509032195244353
0.9004962824977643
0.5343762958210615
0.2063794693613227
0.2188051344631277
0.2406735370976765
0.2553417981222193
0.2690595524805164
0.2858202254588876
0.3079048268610825
0.3369594372017545
0.3787499095283711
0.4358435699752747
0.508613438524684
0.5903728345339412
0.6860221755292015
0.8195197419001439
1.0072275416343035
1.1903294624156056
1.1734418129359812
0.8732059657248663
0.4998243229729667
0.206881782808915
0.2199655985758133
0.2421784094361582
0.2569247309235083
0.2709637398591656
0.2884487624409894
0.3108481746282269
0.3412138422879283
0.3846493275377508
0.4447540077358304
0.5192103607948553
0.6043184029680236
0.7107973670348768
0.8547822005437379
1.0514102997385952
1.219126505240669
1.1683452841940023
0.8439762594885398
0.4764996989366049
0.2068928340813629
0.2209775483825619
0.2434097108910481
0.2581917091344738
0.2726632651717765
0.290377517119783
0.3134909186816348
0.3459540422034921
0.3902741130773955
0.4520182491344902
0.5294788934265857
0.6211320316017374
0.7372451982681361
0.8856344747114686
1.0879051132128357
1.217961167970909
1.1207299076071056
0.7988388969953869
0.4537991648241699
0.2064662950863452
0.2216622825408853
0.24419778480267
0.2590834669073787
0.2741524964678463
0.2919528599842151
0.3156998173914984
0.3503195698954978
0.3958029391484423
0.4584522810321971
0.5390302569790132
0.6352567580290306
0.7549975520779189
0.913070045007178
1.1281664015896966
1.2192587491038087
1.075845135600962
0.7563341298670574
0.4334118879981442
0.2059969872689636
0.2220562209567572
0.2452860414411563
0.2602389521335739
0.2758112727623247
0.2938841924964488
0.3181497846149134
0.3538444524448541
0.4016601724237597
0.4667002818303049
0.5485199634658732
0.6467767393409704
0.7692782218039724
0.9424090442384984
1.166674892370408
1.233817208611293
1.064426819991804
0.7301235976377849
0.4156340255579042
0.2059820376595904
0.2226438191685646
0.2468325885613813
0.2616050936986981
0.2772554349440455
0.2958601620940699
0.3203451051588459
0.3561379007984769
0.4058247196505582
0.4735497639814212
0.5577591986268026
0.6592395484813434
0.7871130902714288
0.9726772532728116
1.1981181781442112
1.253954533324266
1.0632215817304225
0.710748329817336
0.4061813003674433
0.20631911899471
0.2230384078264009
0.2476875919130985
0.2625091907956747
0.2780784926830132
0.2972772271456105
0.3224699123332729
0.3582179776137978
0.408924510008459
0.4775991446709172
0.5628597708116753
0.6692817716413902
0.8018381577459963
0.9973731245343804
1.2194825701983358
1.2642259906185902
1.0635899623929674
0.6964374165670354
0.3965240169790975
0.2067558413615665
0.2232755486906534
0.2481122268168337
0.2636065538030557
0.2793589102854072
0.2985669888382166
0.3241405394438562
0.3603990313854768
0.4132565840261062
0.4832844138462253
0.5692961575012816
0.678913078852711
0.8121474014988616
1.0148570301396775
1.2369795542290485
1.2743397093211624
1.064507793315803
0.6850927749022725
0.3862106835589596
0.2073170122692393
0.2239138313846788
0.2492083099418572
0.2651490340335098
0.2806592238775449
0.2996690041212079
0.3254806437194152
0.3625120258179623
0.4174015841729461
0.4886843776865224
0.5768490398929764
0.686573737610653
0.8195535631867941
1.0310145967968216
1.258903733951593
1.2855748391493749
1.0579272440184406
0.6771849081206425
0.382375392273773
0.2080114372679044
0.2245061451764302
0.2500509795047405
0.2661949283192048
0.2810438597116726
0.3004648329318876
0.3266220507077546
0.3640482204091035
0.4201850253464922
0.4916507894898937
0.5803922922392459
0.6928370814418463
0.8311330095623171
1.04736423206154
1.2737448206063
1.2912571359712168
1.0538011430026824
0.6738161358388323
0.3815356762093504
0.2087726473788542
0.2247676033430978