/*--------------------------------*- C++ -*----------------------------------*\
| =========                 |                                                 |
| \\      /  F ield         | OpenFOAM: The Open Source CFD Toolbox           |
|  \\    /   O peration     | Version:  2112                                  |
|   \\  /    A nd           | Website:  www.openfoam.com                      |
|    \\/     M anipulation  |                                                 |
\*---------------------------------------------------------------------------*/
FoamFile
{
    version     2.0;
    format      ascii;
    arch        "LSB;label=32;scalar=64";
    class       volSymmTensorField;
    location    "0.0021";
    object      tauij_LES;
}
// * * * * * * * * * * * * * * * * * * * * * * * * * * * * * * * * * * * * * // 
 
dimensions      [0 2 -2 0 0 0 0];
 
internalField   nonuniform List<symmTensor> 
13597
(
( 0.1467452571085498 0.0344918313002279 -0.0393752163662271 0.1085845718179116 0.0415502505205909 0.0944558220658628 )
( 0.1501889145299631 0.0358834605944925 -0.039508080226679 0.105288871073524 0.0382870578102266 0.089356664478311 )
( 0.1547427783018693 0.0375623326417715 -0.0388942007874795 0.0984522101210927 0.0318348848422893 0.0809225568068779 )
( 0.1609376144504284 0.0382761457105321 -0.0382451731539759 0.093003363214849 0.0246124194185807 0.0736479502796549 )
( 0.1672714937322879 0.0379898779998886 -0.038115740288627 0.0909302771121079 0.0196004351872335 0.0700081189875796 )
( 0.1729237721281226 0.0371949495658537 -0.0377073844307192 0.089295117694062 0.0162832043163316 0.0674585716329479 )
( 0.179452658143498 0.0355060169911525 -0.0370590229949086 0.0877380809354397 0.0141990064861339 0.0658440172217518 )
( 0.1871161290143081 0.0329034621030231 -0.036173428805049 0.086164095299347 0.0132684673579319 0.065743540965991 )
( 0.1947832713908655 0.0295739817616235 -0.035147076259713 0.0846409428932209 0.0133319008866265 0.0665168325062456 )
( 0.2023745261780054 0.0252728924512807 -0.0339122496263787 0.0821158404149765 0.0145182523261298 0.0683191871837164 )
( 0.2107526217687278 0.0199810753724128 -0.0320673343153622 0.078476861200068 0.0170228341501876 0.0721003888339472 )
( 0.2197968181086582 0.0138134305919614 -0.0302499402379163 0.075562856640483 0.0199988507853535 0.0778509143493988 )
( 0.2286278236352084 0.0067845624078569 -0.0278953018501726 0.0723309260075123 0.0235749874473263 0.0854629722852202 )
( 0.2371389308082093 -0.0005524493216359 -0.0246354309815083 0.0692511715164584 0.0276625464913187 0.0949034307921493 )
( 0.2454210076155585 -0.0078558314932262 -0.0207708157831652 0.0670846180983534 0.0317451963046635 0.1059899151948301 )
( 0.2540857527707176 -0.0149993276154972 -0.0162554177424773 0.0657063227580023 0.0357636365506309 0.1187675642912113 )
( 0.262333207332466 -0.0214954300764415 -0.0115021714366607 0.0646817920718438 0.0392113017420804 0.1324642905026999 )
( 0.2688403542593914 -0.0271916808366444 -0.0068018281344319 0.0643990482042071 0.0420225743170079 0.1464448440465695 )
( 0.2759423036878685 -0.0325458768427183 -0.0024231440136948 0.0662553214868397 0.0441324731925175 0.1611176783456863 )
( 0.1639664608887791 0.0368065434950841 -0.0405820202203429 0.121784228653096 0.0347513687755447 0.0819238536305085 )
( 0.1684866989814741 0.0387247201428866 -0.0384095078691285 0.1194073768320175 0.03032352723949 0.0759441489314566 )
( 0.1723459970190715 0.0421739898940123 -0.0344930414367357 0.1126731430893022 0.0226736390138024 0.0674172769691857 )
( 0.1774116484339738 0.0458153551763937 -0.0302219981409905 0.1084079387520312 0.015521676299878 0.0627371979071778 )
( 0.1812578747138378 0.0475485865396626 -0.0262848907585317 0.1066049264703246 0.0115428870735488 0.0614210465157879 )
( 0.1839197032863128 0.0482826085697807 -0.0219679654975207 0.1043787154463993 0.0092240437725625 0.0613875974175893 )
( 0.1863363570974173 0.048208987413628 -0.0175395938013422 0.1011233901410089 0.0085688691206613 0.062860005570939 )
( 0.1891286436152766 0.0472469014370559 -0.0121447816194315 0.0973918688778833 0.0098388453733301 0.0667742942930321 )
( 0.1922758908179362 0.0454404302345263 -0.0063184122478518 0.092957976593342 0.012349872290155 0.0725882697440349 )
( 0.1937853381297057 0.0426381761403415 -0.0002750402391498 0.0870675193514291 0.0158783303748761 0.079790046250407 )
( 0.195171754182258 0.039200761492717 0.0067015375057415 0.0800310241923826 0.0208759083672071 0.0898471533978858 )
( 0.1966315478632267 0.0353827285635747 0.0138845805241224 0.0733844366651268 0.0261217303040997 0.1028005339619006 )
( 0.1974999318712665 0.0316091675374191 0.0213800835687629 0.0672892440743757 0.0310127221080093 0.117527396405212 )
( 0.1991320389042603 0.0283736845187804 0.0288470878531903 0.0624779731641759 0.0354520520734427 0.1339286823644027 )
( 0.2015584270605273 0.0260096626753855 0.0353429115561687 0.0596920502642074 0.0393790643678882 0.1503613349351821 )
( 0.2045873034904871 0.0243329721347295 0.0405768750596779 0.0582068933358787 0.0423029340690069 0.1655235848153002 )
( 0.2075985353581723 0.0232578285156771 0.0446326727515195 0.0576163387370537 0.0435626537056493 0.1788263125102908 )
( 0.2108771027629577 0.0230950493847698 0.0480583601108033 0.0578943736986852 0.0438282984444017 0.1910507686479829 )
( 0.2156345932899283 0.023344376169801 0.0500481710585008 0.0595806547883715 0.043892400949813 0.2020431561563419 )
( 0.1759881881694209 0.0360589988833141 -0.0319072844617779 0.1343438620395513 0.0256503707177177 0.0716878593083087 )
( 0.1775853065357093 0.0371066203806467 -0.0266071899470184 0.1334241589263686 0.0197257969498022 0.0659886928625581 )
( 0.1762681317891147 0.0405731980140116 -0.0197429582219004 0.1280527196010426 0.0115020133733185 0.0598773739861024 )
( 0.1736024402000019 0.0439991419662601 -0.0126429764757221 0.1249320849025447 0.0051682296743814 0.0592232710540043 )
( 0.1697611275406761 0.0449424728391486 -0.0060093022426025 0.1231453058334877 0.0027148022449472 0.0616210616425866 )
( 0.1657264370826776 0.0453262407540751 0.0011271234114641 0.1201398375804334 0.0028036028873779 0.0660423511449898 )
( 0.1610753580293958 0.0449050804403362 0.0082106741133141 0.1146908530575136 0.0050172913174351 0.0725033394293905 )
( 0.1557573979608352 0.0443131812563737 0.0157854023834208 0.1089792660746303 0.0086288299662034 0.0813389819412477 )
( 0.1515671718199712 0.0439207907191384 0.0237437082451015 0.1022113480727478 0.0133743847500645 0.0923834172937558 )
( 0.1478543554304217 0.0428915591598807 0.031958315184752 0.0935971966309657 0.0187105297660075 0.1060945402821575 )
( 0.1445570311822414 0.0424579796489059 0.0398991512212729 0.0853834373218644 0.0235906298653646 0.1216033117778968 )
( 0.1426453641378167 0.0429321177760079 0.0471072064572837 0.0781636094552471 0.0276425069590796 0.1383188596723825 )
( 0.1424626930443989 0.0443171772149238 0.0529639851361721 0.0723830258718048 0.0301678190860612 0.1549552221297364 )
( 0.143656045651288 0.046813641350782 0.0566266357023812 0.0688276106334252 0.0309191557479647 0.1695235498226899 )
( 0.145504532323276 0.0497095482754354 0.0582824818337113 0.0673053185120041 0.0304601042065857 0.1810697199977382 )
( 0.1478884288403893 0.0528780683552931 0.0581923736608563 0.0669098829394186 0.0290183775753952 0.1889912718310094 )
( 0.150277465939372 0.0561580619603513 0.0568365800549866 0.0672320530734593 0.0266033031473474 0.1937094133663785 )
( 0.1531245143784736 0.0596899259897684 0.0543484470619742 0.0681008469088492 0.0236092679196537 0.1961888404675498 )
( 0.1571764898183814 0.0630896654452918 0.0506775667997651 0.0691355074979308 0.0206338506210474 0.1965304765724196 )
( 0.176218496380965 0.0299877297262233 -0.0188659575717954 0.1455686888783358 0.0143322398217005 0.0659272753964582 )
( 0.1720247714615896 0.0289640175755731 -0.0119906418277563 0.1462500144164467 0.0072491056979001 0.0628839088920371 )
( 0.1625789223123696 0.0305506429169594 -0.0046078353306594 0.1432704923840957 0.0003314493499497 0.0614096260289513 )
( 0.1510561558659452 0.0322824702761385 0.0030508931608333 0.1413500913112127 -0.0034056498278536 0.0658055670773046 )
( 0.1404302433049095 0.0320134244351626 0.0103263520682762 0.1395752992623199 -0.0034047176960712 0.0731489802432981 )
( 0.131232429108639 0.0321070782698563 0.0178751898121468 0.1360423443678305 -0.0006174465401458 0.0820663629124095 )
( 0.1232553042165686 0.0325193086663469 0.025748821838343 0.1301011543554568 0.0037986104699825 0.0930585679329371 )
( 0.1166187522479229 0.033535449090057 0.0333105956492049 0.1233476673832062 0.0086988749784316 0.1059591695727496 )
( 0.1123487852518796 0.0359494258658609 0.0400678193271577 0.1155595329141257 0.0135784617053835 0.1195616898665988 )
( 0.1098798458667845 0.0391245942165393 0.046100407622784 0.1069239688722542 0.0174636591172705 0.1334112604042501 )
( 0.1087593036025985 0.0433832478793427 0.0502277617780313 0.099517591941475 0.0193487493674169 0.1459169886972653 )
( 0.1102044903941426 0.0488863432350808 0.0523456300732415 0.0934343770101036 0.019474682770726 0.1568511117409029 )
( 0.1130279542762567 0.0547207518856991 0.0520875570446324 0.0888522935165722 0.0172247944257827 0.1649550743305059 )
( 0.1166503145132109 0.0610526012818316 0.0496526087256336 0.0867844305112701 0.0137529318759323 0.1691969939433466 )
( 0.1200025127852914 0.0667035849634449 0.0462532531751732 0.0863324752516612 0.0100510285833964 0.169944656222359 )
( 0.1228360618106419 0.0714886886215372 0.0422025447121733 0.0864419955385545 0.0060818992124106 0.1681824453367064 )
( 0.1256526065438079 0.0757041279977398 0.0378072106374395 0.0868959054469801 0.0023119535269206 0.1646679570537673 )
( 0.1284669316971201 0.079741664344366 0.0327566361860171 0.0876106195278855 -0.0014484228225178 0.1597398350871142 )
( 0.1317798880310208 0.083829987336608 0.0270629479383555 0.0880929649404046 -0.0051509919154594 0.1540105903025734 )
( 0.1672790688794132 0.0184743790044053 -0.0071174938543796 0.1565046065753465 0.002727656142343 0.0673531734423532 )
( 0.1558723420386596 0.0147248626943867 -0.0010518249633754 0.1577714150471194 -0.0041817479020942 0.0682785827862478 )
( 0.1400330985102975 0.0148936976508289 0.0055879125957559 0.157304648201991 -0.0087992139149828 0.0714433849945728 )
( 0.1250969009341848 0.0157669261397354 0.0132785710220806 0.1572652397243739 -0.0092499348643775 0.0802249714471364 )
( 0.1142159429238921 0.0158707647586624 0.0206401137692398 0.156032848965076 -0.0066891654595832 0.090793237332841 )
( 0.1066691685412598 0.0173201984338883 0.0279757140264441 0.1525279559170047 -0.0021596225117571 0.1020714235576189 )
( 0.1017323726221302 0.0198349291428117 0.0352976651089538 0.1467930118753942 0.0029092410271181 0.1143632538444226 )
( 0.0996232975403696 0.0240704224655753 0.0412922413542968 0.1404500330460641 0.0073436427932465 0.12641035119188 )
( 0.0991870961037797 0.0298149847493615 0.0452375697468959 0.1335788675601295 0.0101717648077699 0.1362611912124302 )
( 0.1002070159282253 0.0365812872877844 0.0472297456043177 0.1267103157349191 0.0107535055959783 0.1432297458093969 )
( 0.1026416981528459 0.044528605558586 0.0469926535091527 0.1206222320015844 0.0090513745888947 0.1479114964058223 )
( 0.1064736387908702 0.0529854417303912 0.0448718971523507 0.1161152413475262 0.0053401524462513 0.1504083975633957 )
( 0.1102206391890883 0.0610725241895743 0.0407614610002991 0.1135815726098718 0.0003650193659335 0.1497571587168961 )
( 0.1138547459394656 0.0687721131937163 0.035499138649159 0.1128933871773063 -0.0046542013341544 0.1466729203482925 )
( 0.1170139531291459 0.0748457338279331 0.0304358522475769 0.1135954553771196 -0.0091847776252277 0.1420904753269628 )
( 0.119718480639445 0.0799700017292476 0.0254561316247099 0.1146995700181316 -0.0133114422019342 0.1368718164587637 )
( 0.1220568454152343 0.0845280732003938 0.0206522796159797 0.1157281919288423 -0.0167469544266335 0.1317951955101176 )
( 0.1240936458944791 0.0886173502790623 0.016021396664832 0.1166165841749811 -0.0197968725991237 0.1273345087307369 )
( 0.1263959398971202 0.0926993354856391 0.0110837421020369 0.1168109695872777 -0.0226968523698439 0.1235995213412515 )
( 0.152388824265875 0.0024808963072569 0.0008405684794556 0.1661181825068782 -0.0077617197970312 0.0757250260785203 )
( 0.1367346074083257 -0.00277043216164 0.0055643699084649 0.1688140670432202 -0.0137586172883401 0.0800317776490349 )
( 0.1197845030480448 -0.0022984196028258 0.0125243306980537 0.1712596639914934 -0.015698945224488 0.0866136922038494 )
( 0.1083427846305176 -0.0001926114705702 0.0211609081647261 0.1732685125905918 -0.013007287074779 0.0975499702906105 )
( 0.1024879481792442 0.002146787552093 0.0290278645560347 0.1724220681516666 -0.0085045483988944 0.1084891820329933 )
( 0.1006895863084357 0.0059412312514411 0.0364827140076596 0.1693331507214106 -0.0033959616185583 0.119054637697489 )
( 0.1006567866248835 0.0112310085524911 0.0426702916162791 0.1644755865580535 0.0009595780830962 0.1283897462495287 )
( 0.1026297310149428 0.0183790851501863 0.0462813263218958 0.1595861243697937 0.0036663578725861 0.1356807543491017 )
( 0.1050730773195176 0.0262620125696425 0.047266545931923 0.15479886377813 0.003893045720238 0.1398821422031769 )
( 0.1075373976290004 0.0355365377492291 0.0458592217078335 0.150124009720556 0.0015581158996806 0.1410899037385087 )
( 0.1102703634245164 0.0456066392874776 0.0424430309798876 0.1463487852122831 -0.0026484539069983 0.1400299519508407 )
( 0.1124461935003046 0.0549206215116621 0.037416243770758 0.14427213650932 -0.0082998005554622 0.1358386605927465 )
( 0.1147296982554628 0.0641218435312 0.0316341899217249 0.143799360789264 -0.0138070200416986 0.1308009830051765 )
( 0.117099539877358 0.072624812302963 0.0259493670448533 0.1443617817736443 -0.0182834287868788 0.1260205276464499 )
( 0.119162282885489 0.0789870405484984 0.0211390020025818 0.1460656962753351 -0.0221091476515546 0.1214789296007657 )
( 0.1208119180504115 0.0841603702630908 0.0170908127278094 0.1478352073479106 -0.0250314662944075 0.118026785154617 )
( 0.1223201880089257 0.0889852851908673 0.0133415249311232 0.1494763699565765 -0.0274193850806943 0.1161327741462039 )
( 0.1238437797295585 0.0935013371791266 0.0100064590891167 0.1506422076138686 -0.0294111726134631 0.1156841581612546 )
( 0.1257207397030114 0.0980223444716508 0.0065013275162252 0.1504577328948884 -0.0311910191538171 0.1170835989635139 )
( 0.1357410308755684 -0.0156083236853035 0.0059042846478905 0.1748582036201586 -0.0170405735895022 0.0890546259401358 )
( 0.1211229989108349 -0.0201431191497227 0.0110216260932979 0.1797444559790441 -0.0213999949165627 0.0954758874182869 )
( 0.1093438967318551 -0.0173699250035772 0.0199102966188352 0.1854031643463814 -0.0204257560988475 0.1027114340088517 )
( 0.1045370816568646 -0.0128232976165816 0.0299524856976572 0.1891466591394216 -0.0154580315639768 0.11297290775221 )
( 0.1044634511138652 -0.0080263429620672 0.0382193957368465 0.1889811080772576 -0.0100021810154249 0.122325439524146 )
( 0.1073053364109851 -0.0015356034248665 0.0450009222598897 0.1870285111652514 -0.0054018307739242 0.1302879908320541 )
( 0.1100743223059814 0.0062251362807408 0.0491645616431083 0.1833364891467913 -0.0026788065067606 0.1357975529842172 )
( 0.112752894482746 0.0151673375345543 0.0502053720444962 0.179952378726817 -0.0023684037029858 0.1382202613907367 )
( 0.1146561836683426 0.0244587532663154 0.0486486050762415 0.177707202101861 -0.0042889412206313 0.1379110619589367 )
( 0.1153693443841827 0.0351256255881269 0.0446530328994176 0.1752214735956948 -0.0078721139213498 0.1349634624274356 )
( 0.1158676205642633 0.0466778218257608 0.0388326219446722 0.1742725806819356 -0.0127765726007552 0.1296861476185525 )
( 0.1159052499505097 0.0572994466476458 0.0325162462812606 0.1747987764904462 -0.0182547018637795 0.1230339005117127 )
( 0.1165425761608 0.0671710039054426 0.0267599338118926 0.1760541549995462 -0.022990691343761 0.1178058085781757 )
( 0.1176655187889091 0.0760468508472839 0.0218287938327968 0.1780621309518903 -0.0265028743512762 0.1144120663511648 )
( 0.1193368458253879 0.0833712190694278 0.0178436965470325 0.1804627000498479 -0.0292348397079927 0.1124151537145851 )
( 0.1208585886500853 0.0895345595705311 0.0149777259250533 0.1830571667831849 -0.0313054827378411 0.1123151731403316 )
( 0.1226097635033455 0.0952146069548089 0.0125155648757823 0.1850949812888687 -0.0331130266840169 0.1139324976590496 )
( 0.1250330157038238 0.1009929791369672 0.0100840265038726 0.186151900780891 -0.0347701769532138 0.1174637556395926 )
( 0.1281938712628343 0.1068613972198139 0.0075157329588376 0.185583748174596 -0.0364107545037554 0.1236622630514924 )
( 0.1242489541100668 -0.0321131904599145 0.0107703644381352 0.1836639654652489 -0.0242630375068548 0.1039145465080096 )
( 0.1143908031368778 -0.0348800249493191 0.0180614691432541 0.1904360879699033 -0.0263488130209555 0.1108904546451407 )
( 0.1094398696251592 -0.0287702480922625 0.0292702209440255 0.1984631437094108 -0.0229994968862267 0.1171611399272867 )
( 0.1104429725959548 -0.0211430975416227 0.0403830952765078 0.2041484004078726 -0.0169322459666043 0.1254435705979217 )
( 0.1139050138464717 -0.0140925750052785 0.0483232542932412 0.2052502729699033 -0.011824500960176 0.1324797479441782 )
( 0.1175576844920779 -0.0057306759455274 0.0531286644431464 0.2040342612352333 -0.0085809574794965 0.1374990589406778 )
( 0.1193680939528769 0.0037786127041829 0.0545170967179639 0.2014834760338929 -0.0075814436571635 0.139419894926545 )
( 0.1205220807273237 0.0136072257019195 0.0528086116121338 0.2005276374131932 -0.0089226728285545 0.1380336337666382 )
( 0.120409278571425 0.0240520989814016 0.0485636002168949 0.2015500223165568 -0.0124165430941962 0.1340736723603451 )
( 0.117971214877908 0.0361500681998016 0.0425618475972699 0.2015504453160775 -0.0162724630841519 0.1279917870419171 )
( 0.1163089909096889 0.0489940995376937 0.0359336806736368 0.2034133413958424 -0.0206842627793074 0.120959257442629 )
( 0.1157533419616953 0.0613306519611564 0.0297929406007882 0.2063483842579682 -0.0253863184348525 0.115093381911239 )
( 0.1158799930928941 0.0725062924653343 0.0246599032502413 0.2087825036476358 -0.0288014852660002 0.1110868767636963 )
( 0.1168949853838883 0.0823413327517521 0.0208407930976573 0.2121793595635828 -0.0311666336525848 0.1092717162235495 )
( 0.1186490101012186 0.0905743975904642 0.0181142104664375 0.2154606031355214 -0.0332629248899416 0.1099980247626628 )
( 0.1210238389830746 0.0982506175889291 0.0160717548660215 0.2186572189015707 -0.0353872217192275 0.1129494900379037 )
( 0.1243782981568084 0.105872682693128 0.014238170350335 0.2208348177337141 -0.0372358091752593 0.1176639521100739 )
( 0.1289204726748372 0.1137784321432221 0.0122986999627119 0.2215425456795342 -0.0391586157014276 0.125014471507394 )
( 0.1345393594971447 0.1216437265134569 0.0102109024829497 0.2203382298462973 -0.0413562576494891 0.1355631803940598 )
( 0.1195306673258559 -0.0459409345038087 0.0174587922496285 0.1917764237792281 -0.029295768773423 0.1182389926426362 )
( 0.1153800359899765 -0.0459066728338726 0.0278670819303488 0.200545331230434 -0.0294551770757956 0.1245980672890878 )
( 0.1161012635461983 -0.0363008512763529 0.0409633004697105 0.2113717844874097 -0.0245256483501197 0.1294605009386526 )
( 0.1201670355335699 -0.0259244542952371 0.0516648420115344 0.2185688860624857 -0.0184065936538334 0.1358084567131485 )
( 0.1241727176970257 -0.0167443214243115 0.0581116498140364 0.2205765295949428 -0.0143644657570022 0.1410759230311773 )
( 0.1262153402849949 -0.0076752792778171 0.059928778748538 0.2205679536184194 -0.0127814538321801 0.1429290102430703 )
( 0.1251754518464198 0.0025719512632481 0.0580661609170873 0.2202151021790576 -0.012959292210105 0.1410542091305854 )
( 0.1229649199093079 0.0138418828356464 0.0534765202315745 0.2213240458145637 -0.0149946971128371 0.1369351591820811 )
( 0.1199752954810357 0.0255538241749204 0.0469124155691011 0.2246988057933071 -0.0190135273304651 0.1302557916243165 )
( 0.1162237138123009 0.039222330623456 0.0400450302552408 0.2285824798747561 -0.0225798531131877 0.1223532588064141 )
( 0.1135311787394216 0.0534099588154088 0.033913257205726 0.2328902143951811 -0.0261137226804327 0.1149982824543353 )
( 0.1130439669488892 0.0671374283438794 0.0286825410973768 0.2374708082765639 -0.0299071469032779 0.110124047972733 )
( 0.113672247874205 0.0801572792965398 0.0245146858466751 0.2413601735946154 -0.0324741508782847 0.1076243068448469 )
( 0.115878763713157 0.0918815541313974 0.021541752095959 0.2458516064318125 -0.0343243824066257 0.1078603683443685 )
( 0.1190491631300793 0.1018425478752357 0.0196298886922489 0.2500901178710018 -0.0365261633172638 0.1110979382782998 )
( 0.1231227931626744 0.1116238737080609 0.0180541258269633 0.2537493902090633 -0.0390909771767481 0.1169365569224769 )
( 0.1288012564193382 0.1217233906982301 0.0163327869254398 0.2562741804452706 -0.0412707621287454 0.1246190155284607 )
( 0.1361292651118998 0.1321300429195702 0.0144437705703488 0.2568387155751927 -0.0438361525454316 0.1354884148172858 )
( 0.1451975827303018 0.1426856419087076 0.0122216969539584 0.2549789799493785 -0.0468030160430264 0.1502637384663482 )
( 0.1206653857008047 -0.0556447131963205 0.0271109436898353 0.1990931755556965 -0.032282323285563 0.1315220344580697 )
( 0.1211651548989365 -0.0514352544585654 0.0403559314922975 0.21030616423461 -0.030734270856133 0.136368325258356 )
( 0.1243880430389899 -0.0390144430820477 0.0534229508793926 0.223539285140122 -0.0252290556057282 0.1397763970159911 )
( 0.1288287613208509 -0.0278605591373945 0.0619452968220865 0.2312492003095074 -0.0202642618556522 0.1449250947449698 )
( 0.130889283921797 -0.0178201774596932 0.0651668043639174 0.2337930044625539 -0.0174617755392449 0.1475186851068995 )
( 0.1302974697238864 -0.0079159371514887 0.0638672799263299 0.235771276339216 -0.0170510723815101 0.1467411315093015 )
( 0.1266246560394791 0.0028196773567034 0.0591210665811 0.2389714490346199 -0.0183717872920223 0.1426045451966658 )
( 0.1209362245170812 0.0153326507920672 0.0521394712178201 0.2436392018283791 -0.0208211523383301 0.1358197944105203 )
( 0.1156619068314057 0.0286476078902181 0.04485774495902 0.2494268803897589 -0.0239878054988268 0.1274073278472055 )
( 0.1111311035784522 0.0433648922701904 0.0384041158606469 0.2561828182698186 -0.0270676611897733 0.1183640992497531 )
( 0.1087195427990297 0.0594274071169214 0.0328966351788751 0.2622574503604445 -0.0296495987875161 0.1107098384463758 )
( 0.1093295322686304 0.0754755867330759 0.0283791633766575 0.2675839709447515 -0.0322086099989725 0.106369501692059 )
( 0.1116342302046686 0.0902458897753393 0.0251136063795075 0.2731544180862726 -0.0345932853121957 0.1056819939704703 )
( 0.1158091809547485 0.1038193402551098 0.0227687617628111 0.2785945368974195 -0.0370192452646652 0.1085974447866473 )
( 0.1212647821386126 0.1166399956746146 0.0210866860757827 0.283740297357722 -0.0396829942106609 0.1144516334138767 )
( 0.1279414190985742 0.1292042866997863 0.0195232542172897 0.2885118908334539 -0.0426617082543766 0.1227926097051761 )
( 0.136476644134101 0.142048663780426 0.0177299195163589 0.2919570466871156 -0.0456781496530178 0.1336283279067739 )
( 0.1468271203933485 0.1551238294194488 0.0156055164080969 0.2926616152526341 -0.0490070305377874 0.147929589346143 )
( 0.1595068011678368 0.1684042964602808 0.012819778938276 0.2901112693657368 -0.0527467157155898 0.1663934741891438 )
( 0.1250867381604364 -0.0605697908718919 0.0387766018596437 0.2049271566315946 -0.0338158690030885 0.1431063448521546 )
( 0.127978619423245 -0.0529318564017131 0.0528301152436292 0.2176611415643056 -0.0310703670650072 0.1457616110711509 )
( 0.1319321238403381 -0.0388360790941128 0.0645289963757289 0.2332314619618024 -0.026002764553277 0.1490815754971434 )
( 0.1345702445476036 -0.0275188871048076 0.0696366200347396 0.242137713825405 -0.0228093201470494 0.1528882970620025 )
( 0.1332347049726502 -0.0172771317726137 0.0688889853025693 0.2458279886469457 -0.0212739702385056 0.152454716401315 )
( 0.1294055141374141 -0.0066485790180297 0.0647507132641606 0.2500395443428843 -0.0211953375920553 0.149786746264334 )
( 0.1235938160319463 0.0045638673520379 0.0581112704976554 0.2571727517456009 -0.0229020300798854 0.1440169155808386 )
( 0.1165598652158427 0.0174887126868479 0.050111291419864 0.2658487945369326 -0.0251277252092778 0.134877143994438 )
( 0.1100913308288221 0.0322367469108714 0.0427688974938299 0.2743506232644575 -0.0275352573261838 0.1245451354580786 )
( 0.1050232979071514 0.0484889899674754 0.03692809228019 0.2830605291642933 -0.0299482771209246 0.114796833936444 )
( 0.1037594303671986 0.0665986825418666 0.032218927740692 0.2909981816593485 -0.031991374318368 0.1072884755275497 )
( 0.1062343797007632 0.0855309834299297 0.028381755235076 0.2979133676638735 -0.0341722969155555 0.1041342933449162 )
( 0.1108896134771901 0.102474523010707 0.0257580138599077 0.3046466822581966 -0.036670944613903 0.1055356569306734 )
( 0.1173428715516064 0.1183010732850542 0.0237266266138007 0.3110112916905774 -0.0397285476363857 0.1109672609515179 )
( 0.1254218294416733 0.1342001525126881 0.0219873814669692 0.3175098698211986 -0.0428680415293517 0.1194534431323463 )
( 0.1348856936364891 0.1496805950971261 0.020280399320311 0.3238289898345963 -0.0465553472541759 0.1305433385083284 )
( 0.146274981642494 0.1655054676343128 0.0181510037600081 0.3283839461334789 -0.0506173437219373 0.1447156400523962 )
( 0.1600184518172478 0.1814823295357724 0.0152955329906597 0.3293412748560477 -0.0546074517240368 0.1618862717069826 )
( 0.1771175513074027 0.198083939738056 0.0112444469410237 0.3265347146505493 -0.0588032176517091 0.183064704524041 )
( 0.1304353973587371 -0.061790119226051 0.0520041669396568 0.210215697332482 -0.034792897199864 0.1526530801764219 )
( 0.1345671468596906 -0.0519580156494681 0.0651667790452219 0.2241468244017233 -0.0317265575794836 0.1542494180473688 )
( 0.1376649674085066 -0.0373053218915971 0.0731918513917527 0.2413003260437159 -0.0277297660950377 0.1569736757224696 )
( 0.1370240782728485 -0.0263065428921889 0.0745373109361066 0.2513402347126124 -0.0258620328113223 0.159275504199444 )
( 0.1324514570832856 -0.0161154511715579 0.0704577630950938 0.2574389400268172 -0.0250116269373068 0.1572386880285544 )
( 0.1250082757607604 -0.0050306722294462 0.0634300037424524 0.2647216159815125 -0.025035042904689 0.1519498787768259 )
( 0.1175456142022822 0.0070290173977725 0.0554309722369111 0.2744567952018228 -0.0262230340996303 0.1436948494603312 )
( 0.1101261088705448 0.0211650841271654 0.0472203953442693 0.2857765325961123 -0.0277726771417708 0.1328793247974248 )
( 0.1030155429045151 0.0370879409201677 0.040551402835737 0.2973880393049699 -0.0296286864931229 0.1211454731472302 )
( 0.0991497159151008 0.0554857423931048 0.0353277758781533 0.308546791514064 -0.0311898264149162 0.1109671191577758 )
( 0.0995781282701436 0.0756863789481883 0.0312422830810616 0.3187282517050389 -0.0330135915728303 0.1041257043827011 )
( 0.1040637516561905 0.0965139116150563 0.0283193600050362 0.328179825334514 -0.0357484148299833 0.1030270524146893 )
( 0.1112774388537805 0.1164293434481673 0.0261273264083529 0.3364695487786627 -0.0387043319574716 0.1067694277060489 )
( 0.1203702326737646 0.1352518537762254 0.0241695134739363 0.3442536269169868 -0.0425736864744745 0.1150631268516223 )
( 0.1312233771107876 0.1539037349529443 0.0223142444491945 0.3526372579437686 -0.0465502024154007 0.1263640877730251 )
( 0.1432524815544067 0.172134950494007 0.0202079461994069 0.3606662058091284 -0.0508734359756754 0.140042788602783 )
( 0.1573981230601491 0.190799865435209 0.0172146663356122 0.3664355301370591 -0.0557164306912896 0.1567335893535657 )
( 0.1757026668558277 0.2106085442516291 0.0131634833081232 0.3680369463839213 -0.0604706189982134 0.1764059781562318 )
( 0.1989650119477906 0.2317450666872967 0.0075188598467903 0.3654786983232457 -0.0652104900907327 0.1999578140863972 )
( 0.136619673462597 -0.0602462672237566 0.0652133760298842 0.2142883397240819 -0.035700084376201 0.1609140371093118 )
( 0.1398847254185704 -0.0485850180782874 0.075667609335898 0.2302784354902589 -0.0331552899844645 0.1625162839139355 )
( 0.1402945540835537 -0.034709535269489 0.0787283013767603 0.2487457396439486 -0.0302372094814949 0.1639987782159639 )
( 0.1365323063493515 -0.0245094017445193 0.0765942916091864 0.2592088712653788 -0.0284700894395784 0.164384633393144 )
( 0.1290150966914409 -0.014480760346101 0.0697568226984013 0.2682305373663494 -0.0279795437030658 0.1605092783061507 )
( 0.1188267259792985 -0.0028016882534906 0.0607947166076205 0.2786892334880178 -0.0280649942778952 0.153047364327267 )
( 0.1095001737437261 0.0103856942214046 0.0521197998173275 0.2908883206792836 -0.0284831879386982 0.1428327549606756 )
( 0.1017374914539379 0.0256024590759873 0.0440687998147063 0.3052962574187192 -0.0293063735611564 0.1302238559594075 )
( 0.0956583578264313 0.0430210981439496 0.038272076025627 0.3203690618621742 -0.030387893971657 0.1176520079492684 )
( 0.0937197846519588 0.0632060742210871 0.0341567502809928 0.3335576459133144 -0.0316872964434836 0.1076346541314945 )
( 0.0964380156699493 0.0860155090057417 0.0305880066314674 0.3458056505038542 -0.033625170050977 0.1019425055718599 )
( 0.1032398074152385 0.1089482949200518 0.0282469599022246 0.3576803770306964 -0.0369682073749773 0.1029693491374368 )
( 0.1126946370248701 0.1313462269607953 0.0262754585702977 0.368509889197013 -0.0409646728386867 0.1095848752805602 )
( 0.1245126548276264 0.1534519471740595 0.0241580626153101 0.3791766794635497 -0.0457817602081906 0.1210371950518987 )
( 0.1375104916659994 0.1745078007315516 0.0219710504439242 0.3900355483842975 -0.0505711794968955 0.1344863973357297 )
( 0.1523643907045968 0.195675282364855 0.0191025679169202 0.3996732945532154 -0.0554213653479327 0.149609927255481 )
( 0.1709179416494098 0.2185915695351357 0.0149680423253067 0.407470547788361 -0.0609263137255075 0.1682775475505611 )