/*--------------------------------*- C++ -*----------------------------------*\
| =========                 |                                                 |
| \\      /  F ield         | OpenFOAM: The Open Source CFD Toolbox           |
|  \\    /   O peration     | Version:  2112                                  |
|   \\  /    A nd           | Website:  www.openfoam.com                      |
|    \\/     M anipulation  |                                                 |
\*---------------------------------------------------------------------------*/
FoamFile
{
    version     2.0;
    format      ascii;
    arch        "LSB;label=32;scalar=64";
    class       volScalarField;
    location    "0.0049";
    object      k_LES;
}
// * * * * * * * * * * * * * * * * * * * * * * * * * * * * * * * * * * * * * // 
 
dimensions      [0 2 -2 0 0 0 0];
 
internalField   nonuniform List<scalar> 
13597
(
0.1678411609474999
0.1640540353377927
0.1565186482161016
0.1498421459319057
0.1458362690584732
0.142090906971286
0.1378043633885937
0.1338322813871898
0.1300189525286979
0.1262677796879925
0.1233903107976651
0.1217478761655421
0.1208539851450162
0.1208184822989432
0.1220300618062835
0.1240069059286083
0.1263083192856661
0.1290884201201081
0.1329441951982699
0.1751598172960185
0.1709631725289304
0.1616550210747508
0.1551443373207861
0.1502644819043309
0.1458184248468683
0.1411757833925052
0.1367204728205908
0.1329978484961251
0.12964147752869
0.1275661307912112
0.1275309953098108
0.1286143673404795
0.1310337993464465
0.1351248598654139
0.1397283919160682
0.144050171632969
0.1488489384919452
0.154604667975971
0.1821806565411695
0.1786158148727595
0.1701110093966956
0.1646095766655751
0.1601409807558673
0.1555584194949907
0.150561823820905
0.1466672561308154
0.1433600185913862
0.1405874717644288
0.1394827320327575
0.1409512238225449
0.1443518901608782
0.1489120760335834
0.1544152659213447
0.1601594470367227
0.1656198170292848
0.1711625716782606
0.1767949973358033
0.1892216036789978
0.1862595611574857
0.1783807435241431
0.1730251947158083
0.1684869286313671
0.1631106585529724
0.15697800329246
0.1525570634991984
0.1491950694541836
0.1474958293480531
0.1477101321171661
0.1508866348725141
0.1562831883916317
0.1631900558303339
0.1705547240584242
0.1774432010877648
0.1834817805194353
0.1895547221930888
0.1958831651073058
0.1955371449861822
0.1907368041649981
0.1826190989143108
0.177989057260723
0.1723698821700011
0.1660044192740674
0.1596084024737678
0.1548141151456591
0.1524966152206748
0.1529078303078542
0.1566373900674364
0.1634149965861376
0.1720352638341634
0.1816246368374661
0.1902781745378877
0.1978142427943548
0.2038619830613662
0.2091935671672155
0.2139156536677861
0.1992741398809874
0.1927757233507018
0.1836747867509148
0.1788942548863007
0.1725034512295213
0.1661148431932033
0.1613844110567827
0.1585074928967908
0.1590653787695922
0.1634207133774357
0.1710107950062952
0.1806201927054241
0.1904322716069977
0.1989762876454555
0.2060857422214207
0.2109989573507447
0.2141802859793867
0.2158781141720998
0.2163605900628981
0.200726255137399
0.1936118865247372
0.1849908579196356
0.1792049508240812
0.173178453080419
0.1683843426442143
0.1656017583319015
0.1660702991674661
0.1700361852183733
0.1765890476264496
0.1845188694445532
0.193793245495372
0.2017718029401699
0.2069806876411341
0.2103782105566262
0.2115941064896926
0.2110747971451804
0.2092676394301288
0.2062034313385602
0.2018283666435777
0.1944430356266237
0.1869004063229511
0.1813366558251444
0.1763460915537177
0.1735145005023785
0.17324313977962
0.1761061618461842
0.181367463915469
0.1872515948185018
0.1933443395816498
0.1999151534890962
0.2042937154064329
0.2057832657565568
0.2056776577986512
0.2041386776544511
0.2012053993135136
0.1973624085887391
0.1927270174444816
0.2030668467189831
0.1962692739466121
0.1895392258369072
0.184621520704208
0.1809547998272831
0.1806575619133826
0.1820756885121107
0.1846478872019931
0.1889263808512583
0.1931040273534439
0.1966311785223758
0.1994035029206717
0.2002985924850309
0.1991595858027938
0.1969346380777013
0.1939881872236231
0.1901254462041356
0.1859652495727883
0.1815650167116718
0.2052800366813259
0.1986704860074705
0.1922515218999976
0.1888828338405235
0.187169145410305
0.187687637440041
0.1888101504355182
0.1904066604359248
0.1921424197279886
0.1937176904220691
0.1946106140319338
0.1944413684140076
0.1933052596367953
0.1911484501776246
0.1882189290305828
0.1849859374664867
0.1814980626585807
0.1780643213885129
0.1747342488489057
0.2079507517692075
0.2013028918541226
0.1958204246066516
0.1935907586417254
0.1924717464118574
0.1920071243051304
0.1922961082927226
0.1925734706557564
0.1914990977805619
0.1908460312636223
0.1896954831691043
0.1879474282633855
0.1860771306883263
0.1836446254468255
0.1810216508141914
0.1784483501167059
0.1761758006168367
0.1741315350183574
0.1725690515441815
0.210490267747667
0.2043682488579473
0.2003190621465923
0.1984936047485599
0.1968024165667462
0.1950316185880182
0.1933341985993259
0.190828027664188
0.1878842744646299
0.1856272218294891
0.1834093774104553
0.1814367034954205
0.1795633382966753
0.1777064720447404
0.1759731105220743
0.1746246193190261
0.1739376770850753
0.1737761637679183
0.1741776473043552
0.2136035716142484
0.2079369949142401
0.2048345227904063
0.2025186950351664
0.2000971275261127
0.1963687741424036
0.1919472897248671
0.1870812533179807
0.1833621932223884
0.1802546687608854
0.1774148030672948
0.1759658712668653
0.1747107225958826
0.1739237877008408
0.173600115647869
0.1736546704174165
0.1748165067602042
0.1766903403549993
0.1783833430955976
0.2179865022485433
0.2118990212547737
0.2080791800732433
0.2045005850478358
0.2002232169061912
0.1944961440497791
0.1885429547878971
0.1828861697751496
0.1783990160408278
0.1750962035535613
0.1724326436335006
0.1716556022359204
0.1716747575536578
0.1722175699070995
0.1734957266188327
0.1753000841623616
0.1782833481190788
0.181644609509061
0.1847865199513573
0.2217791690592283
0.2147056540791537
0.2103785124627251
0.2049557414063273
0.1986755164748547
0.1914053166669467
0.1839267549160082
0.1777356654944032
0.1732194650847835
0.1701547873631141
0.1682925519113251
0.1686429759065812
0.1703575525069793
0.1723849471105905
0.1752859327317542
0.178910254025946
0.1833891801067118
0.1883788087060866
0.1955338829222775
0.2241488612363909
0.2159219728686384
0.2107801986033069
0.2042940398801414
0.1965697861787354
0.188005884120785
0.1798534181437187
0.1730303604895545
0.1683239447899448
0.165437756530542
0.1652035960845473
0.1673915579300681
0.1703176171132329
0.1738460627228343
0.1784196270880866
0.1836271755164502
0.1898271093032648
0.1984666945564579
0.2128941749232893
0.2251656368160211
0.2161881647425154
0.2094530832419575
0.2023555144023155
0.1935084084293893
0.1839094550272399
0.1756236851298827
0.1689463837910676
0.1640597366280494
0.1617681054681273
0.1628870903422686
0.166721157223461
0.1711308640157751
0.1761618551531157
0.1823876225966137
0.1893591804802623
0.1985743821032946
0.2136400153264454
0.2351743983402557
0.2256755314187193
0.216050151938283
0.2078378005988462
0.199742146628952
0.1900268141191333
0.1799126498533705
0.171358118197841
0.1644857967845013
0.1604466293017031
0.1596322619940457
0.1615327989045393
0.166419616356302
0.1726025376396898
0.179359399806884
0.1872398833761678
0.1964734624057727
0.2107853681301396
0.2332644894895429
0.2543964243501582
0.2257126311180989
0.2149255637219739
0.205800409618624
0.1969501687715975
0.1863912770982962
0.175954229268387
0.167338457494126
0.1601904828188571
0.1571165202401749
0.1578574287493597
0.161149542041925
0.16726118193112
0.1749439476270829
0.1836264683016966
0.1933015979168736
0.2061964165549239
0.2273223692479859
0.2557357531313789
0.2681080244498846
0.2248034669720178
0.2127399013385991
0.203281353183481
0.1935253723111229
0.1821507466241281
0.1715679068434722
0.1633293172497465
0.1567343370916587
0.1544004152982005
0.1561788139955258
0.1608565295124424
0.1686904922549003
0.1780297633878185
0.1881558313893253
0.2008117377686395
0.218541249714928
0.2465166718585329
0.2772324667671103
0.2753893457086557
0.2238825427945618
0.2109938180832994
0.2006327906870124
0.1896685606308444
0.177688854174747
0.1669734905249807
0.1595043847233595
0.1541023929273283
0.1523769185982395
0.1548838510393192
0.1610332727440842
0.1706395285081713
0.1813694432999952
0.1926604164495071
0.2090054949679071
0.2336813778498966
0.2676003925437393
0.2955045808970082
0.2692321507232246
0.2228368279774995
0.2087572212464845
0.1975670480262211
0.1861461476430321
0.1738459634615195
0.1630404697541815
0.1558828008680637
0.1513481101825569
0.1503896214288646
0.1541753251924068
0.1618284397149206
0.1723725031261374
0.184303916166269
0.1981976044621822
0.2183201747473241
0.250328069827785
0.288725176871166
0.3096160122211739
0.2470537211938598
0.220819811532268
0.205619041285418
0.1941867007803752
0.1824795208763497
0.1700910741685094
0.1597654726654799
0.1532643897112066
0.1492703894216033
0.1489561594615533
0.1541340161092981
0.1629492700240818
0.1742155567321207
0.1874047906281491
0.2044064884764206
0.2303222995601604
0.2685232909490037
0.3085275608334177
0.3112622502565654
0.2239316515936346
0.2183501164556615
0.202378570737067
0.1910203277752589
0.1792228179596747
0.1665844385818065
0.1566717302586897
0.1510261473379235
0.1475488332851701
0.148080068822891
0.1543584968772827
0.1641947481684894
0.1768735850515936
0.1916895643767905
0.2118053354249626
0.2440327925405128
0.2877230282926009
0.3262433333847137
0.3033286591936439
0.2025796210680595
0.2160013191027349
0.1996671832059349
0.1879691322218981
0.1762287169449374
0.1634029934136035
0.1538855125440113
0.1483469476727088
0.1453756454036564
0.1472117687359985
0.1543495969092374
0.1654920971905391
0.1794832484473678
0.1960606157365274
0.2208886053481999
0.2580317345365158
0.3051451839302764
0.3375697155125187
0.2925961767475301
0.1790010769758042
0.2142870979843227
0.1975636050994217
0.1848625902479131
0.1730789060155826
0.1605974011265503
0.1517042210637873
0.1460731105303248
0.1435866977888066
0.1465863068745336
0.1545146258502549
0.1666379818249868
0.1817943144961265
0.2006970896222928
0.2298689847168503
0.2712690774071201
0.3206523482945596
0.3382093231788177
0.2756255400847367
0.1617209706376239
0.2123459831506441
0.1955447671123588
0.1820522944719917
0.1702700135606552
0.1582018211683544
0.1497142159979621
0.144338966375555
0.1425045737385528
0.1463040732114727
0.1547976358832519
0.1677816847182578
0.1841865281952963
0.2054458695924126
0.2379943362107198
0.2844559274268277
0.3338728824482342
0.3360293098966626
0.2577353341733358
0.1472718048235408
0.2097756681362494
0.1930071495671925
0.1796572249804549
0.1680076119939151
0.1563572589851364
0.1481472654802432
0.1431479584470694
0.1418717150616629
0.1459399611082238
0.155221265800565
0.1695771593391802
0.186839934013117
0.2099295856882138
0.2459866036683933
0.2984678018890789
0.3461891128458992
0.3377041922093371
0.2447658686669835
0.1349722391914497
0.2074123044990693
0.1908816128671221
0.177604907759353
0.1658347566562972
0.154685825363474
0.1466096426776628
0.1418973810402562
0.1410212326454722
0.1456270011412644
0.1560708813532201
0.1711505960345587
0.1894976246975153
0.2159132739638367
0.2544534644299754
0.3097876142962887
0.3543951590527612
0.3354665888015257
0.23426322262217
0.127604387349312
0.2054239479349374
0.189118336937392
0.1756420336189963
0.1636351124580019
0.1527432310905951
0.1446625639767172
0.1401592032998631
0.1397876568130368
0.145344193190539
0.1565314121254944
0.1720384646864772
0.1921309127534131
0.2208532888796263
0.2626236628418217
0.319227551669429
0.3506595912210355
0.321842432572574
0.2245303760769301
0.123200048006283
0.2036869006747622
0.1873528820525114
0.1738889864162059
0.1618595626836066
0.1507962653284855
0.1427293911317101
0.1384574721512138
0.1387822251219486
0.1451499768771159
0.156900578692998
0.1730971357912189
0.1950095915010881
0.2245836340250729
0.2698470539705392
0.327854422294291
0.3460266745905075
0.3075561251334588
0.2152050894510663
0.1200066154736091
0.2022141485962942
0.1861157266744564
0.1728379625388118
0.1605315193242253
0.1493648209546079
0.1413550205422018
0.1374261107930484
0.1383811871173405
0.1451308517216128
0.1573641775926623
0.1743293772331306
0.1977134601051432
0.2289512914766059
0.2781673604460175
0.3354181015673722
0.3474649368025042
0.3017515757413462
0.2066908931267503
0.1159590122042724
0.2009271537878995
0.1850843576092894
0.171662877204686
0.1592790899873247
0.1486078009497782
0.1406801151228562
0.1368174422532349
0.1380460442066848
0.1451979717082122
0.1579215803059425
0.1754718291082824
0.1998765631285745
0.2324570250684211
0.2848215498621189
0.3427462344967482
0.3508157455496978
0.2996949930061252
0.2007979948277168
0.1117621758916122
0.199798611931264
0.1839749293335074
0.1701949996450632
0.1581067174294393
0.1480146886316017
0.1401669144603625
0.1361781350713228
0.1376244443915012
0.1454582909598968
0.1587209135958798
0.1767876031334619
0.2016424479957197
0.2352038252892127
0.2891246934885386
0.3489188565323877
0.3553585729867861
0.2999032705996674
0.1973958900413268
0.1091824189885314
0.1989418474816694
0.1828483112317776
0.1691136558478697
0.1572461869075497
0.1474947819012199
0.1396084055936215
0.1356364348520037
0.1373314661619843
0.1454426679712286
0.159147707206784
0.1778275908936864
0.2030044291541867
0.2380723223462971
0.2934098090332541
0.35228974248577
0.3564631963278609
0.2984398375885651
0.1943421935462878
0.1074498783356971
0.1982027250317079
0.1820415173691889
0.1685583849059042
0.156765569883618
0.1468365711229092
0.1388097880704061
0.1350449548788218
0.1370609226848805
0.1452062868668505
0.1591877348305755
0.1785282894793369
0.2042312004515386
0.2405612299902277
0.2966017842718608
0.3548165097804743
0.3567427182868075
0.295265090696497
0.1906509091577401
0.1055610195818463
0.197587491639839
0.1814268577769553
0.1681843790728424
0.1563602776780321
0.1459442196392562
0.1380129725430857
0.134540404250624
0.1368897018563039
0.1452680585032729
0.1593872899576087
0.1792539253669641
0.2056806195263428
0.2428239912740791
0.2997392403225216
0.3574231215811317
0.3567763883726861
0.294328430230645
0.1894474641081193
0.1039425422203968
0.1970753036328246
0.1806926844179306
0.1677307812497774
0.1560652000821971
0.1454389777400745
0.1374346524245886
0.1339937713958518
0.1366756993027043
0.1454794634388315
0.1595216059205
0.1796231234180036
0.2067821660696669
0.2457417928405676
0.3033060715460942
0.3579933081103706
0.3561657928851588
0.2931602553226927
0.1887280444077131
0.102963441051682
0.1963699343249255
0.1801514685436601
0.1673450459912562
0.1558959796187791
0.1453692870904706
0.1371812332149996
0.1335633341221816
0.1360458101069489
0.14533923789431
0.1596097075836159
0.1796885971235144
0.2073034080806113
0.2482209062865459
0.3071193047193479
0.357824634506347
0.3541526584294707
0.2901825772857394
0.1866437709422644
0.1025538550975921
0.1959829891090628
0.1801920376547873
0.1673339678143893
0.1556995362517191
0.1451584727866718
0.1368907598712004
0.1333506138229279
0.1354181440337799
0.1447227314547144
0.1595135181924258
0.1797463401081543
0.2076015171812456
0.2491947274605703
0.3097853432131483
0.3580782987919452
0.3510820070542293
0.2878416283071852
0.1850552555894415
0.1022910344940989
0.1960860918364537
0.1805732373315385
0.1674484932235287
0.1555892223454018
0.1450417359922694
0.1365601739821225
0.132986515266599
0.1350876450052379
0.1442782480467051
0.1595399470247203
0.180033398916304
0.20831487923295
0.2505126878842011
0.3112804687776119
0.3570612944453606
0.3474223306618677
0.2846219653905555
0.1830298073049176
0.1021369402014624
0.1960808894825573
0.1808595650535718
0.1674197730030384
0.1553830893886823
0.1449369638781828
0.1364992347691629
0.1327003418085871
0.134748356442172
0.1442020508245295
0.1599956599424797
0.1805227866966395
0.2091567772544297
0.2515865753521087
0.3112151838715293
0.3556628230834329
0.3451047359878564
0.2810658943483248
0.18064942674334
0.1018464135020056
0.1960860359172651
0.181047795784584
0.1673860249839006
0.1551221049344179
0.1444826202566561
0.1362529988687855
0.1324118696915831
0.1343560381116143
0.1437990680948236
0.15999450271331
0.1806487263206969
0.2091239392455573
0.2506827981224155
0.3107195420094579
0.3562993727129602
0.3441169171293154
0.2783314055686264
0.1786563920698149
0.1008120800837538
0.1965180639166595
0.1813181856454753
0.1673653772625543
0.1551621325427248
0.1442346922252499
0.1359930105648936
0.1321521718015298
0.1341733048970403
0.143527561153834
0.1599705329416858
0.18083942511103
0.2091722522231528
0.2503909958970012
0.3111316306150741
0.3550231324967157
0.3407349551732118
0.2761680539887751
0.1778502286935823
0.1003772317969427
0.1335901015476366
0.1360405682527905
0.1426972690249895
0.1553856098864826
0.1686107961744082
0.1797672484925123
0.1908826565750914
0.2005821533654784
0.2084770361612027
0.2146174408012201
0.219389657257856
0.2229279969677914
0.2239383478155353
0.2222707946492819
0.2195892328489486
0.2157814791546884
0.2105769354557609
0.204120004649266
0.1972795767379165
0.1291176806351547
0.1339155967645407
0.1459204889994193
0.164587422030281
0.1805091879566608
0.1943476540567724
0.2078005831203155
0.2184670528650631
0.2254707749688222
0.2306042099019108
0.2334964711124278
0.2340093810137374
0.2324581383036824
0.2275926890561419
0.2216068769266718
0.2154273423988502
0.2087952458150716
0.2023919013418591
0.1958315315496211
0.133025254099323
0.141824090671225
0.1597154887460592
0.1822205370914732
0.1985864690631074
0.2125560717655649
0.2237629903069114
0.2314913982148148
0.2355417585744454
0.2363795014127997
0.2344283208093046
0.2298199786044616
0.2235722703306955
0.2164879106392484
0.2094464194065844
0.2034760246389524
0.1979158755588045
0.1926882778501701
0.1873537484878528
0.1431525005971969
0.1557332957837915
0.1771349036140044
0.2001213096941733
0.2146340911713936
0.2260820290671991
0.2335351083045583
0.2372542269802388
0.2370369258385957
0.2332941675752851
0.2278350268355489
0.2206824518117891
0.2126811326145846
0.2051678613255852
0.1987229476914322
0.1937548623204328
0.18917074456711
0.1845862395186156
0.1802236459579207
0.1549186216467316
0.1702975329711407
0.1929084402009966
0.2143769091992646
0.2263236353825209
0.2336113791071366
0.2371737183321755
0.2366973920301383
0.2334542083464087
0.2277243495253843
0.2203437805212681
0.2126160192974869
0.2045423815281005
0.1969673546502191
0.1907303306010409
0.1857998759163497
0.1814840905844283
0.1772073570636257
0.1730209813111324
0.1663481891801095
0.1831913407786272
0.2052578797267957
0.2238739404780778
0.2330374945955988
0.2370479283886756
0.2372078151696265
0.2340890771744489
0.2291397246478249
0.2217596415449432
0.2130627820793972
0.2045701727954168
0.196154266384178
0.1884055437127175
0.1819500340875468
0.1766647701427947
0.1718241102530187
0.1672193715357828
0.1629252516980329
0.1773400432175171
0.1939472982763296
0.2140164578615692
0.2297838761225915
0.2365852924511343
0.2381030166729712
0.2362059191525761
0.2312051938428756
0.2238266348760081
0.2148753469623076
0.2050917363065514
0.1949383133628609
0.1857024180252941
0.1778693567490726
0.1710563683760729
0.1652798012099773
0.1600024126161627
0.1551162884824218
0.1507686116040791
0.1864226158359076
0.2023410956710307
0.2213275397681756
0.2339046236275154
0.238309895477314
0.2377286594810754
0.2338563697081671
0.226692212943817
0.2169277547099926
0.2065879270694349
0.195482446037236
0.1840031930457188
0.173863756422797
0.1656485072240375
0.158938127630803
0.153277408612604
0.1481556567462163
0.1435157027067675
0.1397726520232886
0.1958703088103817
0.2109828916831796
0.2276815726665274
0.2373803379139777
0.2392243684334906
0.2364527941750031
0.2300485583266827
0.2208838199428396
0.2096166565698354
0.1970390664591373
0.1842581295340672
0.1723918972949444
0.1623208366638384
0.1543157728197794
0.1479610416377017
0.1427360529073992
0.1383369509439039
0.1347966906594634
0.1324073858108123
0.2041975816754187
0.2184772449985426
0.2331854813435581
0.2398769475118518
0.2388461897170802
0.234082964745828
0.2253914436068829
0.214140527544601
0.2013138969187148
0.1870001389774338
0.1734145184909439
0.1612426243636786
0.1518721006473315
0.1448202115417126
0.1391292338505288
0.1348790938376921
0.131847975349659
0.1299429723310321
0.1290801959522949
0.211176120112919
0.2252247447109629
0.2373866957411802
0.2411476937673348
0.2377185982127725
0.2305081622037251
0.219500392743459
0.2060713177060446
0.1917034224805088
0.1767664042959266
0.16295436240107
0.1514493637932278
0.1430509270825168
0.1370908084489072
0.1329644054005003
0.1303281471487272
0.1289805987272988
0.1286559101595351
0.1293258856558621
0.2191105741330474
0.231739498367665
0.2403511062296685
0.2412802405741136
0.2352685429378984
0.2256092802994913
0.2128848642993715
0.197206680044927
0.1815491623399089
0.1667080987647801
0.1531077639473773
0.1430958051360492
0.1363121131597583
0.1320089091563546
0.1296883654213927
0.1287427091519829
0.129018522777515
0.1303934864692447
0.1328207148562536
0.2266476661450188
0.2368488734281781
0.2426665015640902
0.2402321989767399
0.2317399355464827
0.2197707781729421
0.2053265214635598
0.1884271927882392
0.1720480580045305
0.1578305864705563
0.1456129510964419
0.1370508103363634
0.1320211234115197
0.1295863129002872
0.1289518547080508
0.1296794652693432
0.1318299760308978
0.1350653589278325
0.1392215363538458
0.2332676351921792
0.2411619493981744
0.2438583504718118
0.237861456353003
0.2273722453172743
0.2132251933528187
0.1965699887496577
0.1792241265910037
0.163542535504826
0.1502004497954315
0.1397058783227358
0.1330838075443868
0.1298958147882062
0.1291060862849313
0.1301365267577598
0.1329004297738001
0.1369458638627068
0.1418763420618076
0.1478430171547818
0.2402837058902048
0.2445446347451932
0.2430853782417612
0.2348661122567243
0.222302366620174
0.2064122645825546
0.1887525456619614
0.171345619524593
0.1563702040425843
0.1441005879180718
0.1353244946811306
0.1306694166312079
0.1293712825906727
0.1303961447491811
0.1332381929141991
0.1379109872136109
0.1437788759204498
0.1506573049173293
0.1600389965254032
0.2464553363621993
0.2465092900604524
0.2415952677213804
0.2314276639866422
0.2168741716559122
0.1999798703369051
0.1814836280210257
0.164808073823403
0.1508801687951389
0.1396844239280478
0.1326562937728029
0.1296148083217057
0.1301837915518214
0.1332061341326157
0.1380510561014533
0.1442390186226259
0.1520034728427557
0.1622660522707578
0.1771354035396999
0.249703594941172
0.2464637973956964
0.2394408379714724
0.2273408367206624
0.2113610548342509
0.1937037829656608
0.1750515428180553
0.1588167121623941
0.145898852223977
0.1365207963894516
0.1311695005187438
0.1298445064104579
0.132236625393561
0.1370403244291191
0.143734042366458
0.1517860332973736
0.1620869394084469
0.1772817614340073
0.1971366206825284
0.2508586457874865
0.244897961068928
0.2359956384052365
0.2225785308087804
0.2057870229963721
0.1873100672314863
0.1693711669331744
0.1535875443872587
0.1412094332131249
0.133912233190636
0.1304205090519887
0.1312109597146154
0.135439731783627
0.1420471373354084
0.150350099220039
0.1608549224131204
0.1751912333166872
0.1966120711737359
0.2173414678402792
0.2510595308969079
0.2428062288861553
0.232004622512744
0.2173317195377979
0.199798630570811
0.181115666762176
0.1637076061770187
0.1488981203393847
0.137728356681201
0.131889854483005
0.1303483233953453
0.133138024377085
0.1393293152346589
0.1478678735335018
0.1580008125059869
0.1718219440304842
0.1913983432570058
0.2173984949511052
0.2315691056385461
0.2503004100015066
0.2407413390378091
0.2281046604831362
0.212510184207755
0.1941221889227226
0.1754106647552474
0.15881692607413
0.1449138508986784
0.135405892721444
0.1308821144111789
0.1310353748172566
0.1357803448568831
0.1438706638568745
0.1542747373228896
0.1667977666561061
0.1843001222089129
0.2098609336995492
0.2362992118105931
0.2390144778638857
0.2491184059833044
0.2388218777792571
0.2240892162922528
0.2073540240971006
0.1889271164331015
0.1703884500678116
0.1543479448134402
0.1417748135659529
0.133905207146299
0.1306700726797583
0.1324122720733521
0.139183349957337
0.1490547166711287
0.1613303645263788
0.1767739359288129
0.1987604548143023
0.2294365657114524
0.2545533434739178
0.2387151115464494
0.247257588093126
0.2354264303296792
0.219623647651856
0.2021362359349142
0.1836698279181596
0.166026176083079
0.1505094462535354
0.1391723384803342
0.1325338296136451
0.1308091869629151
0.1342921602776402
0.1426950193800413
0.1543585233259286
0.168709355879518
0.1869715180635284
0.2151912171256005
0.2506929950618699
0.2719880799797302
0.2222402577335742
0.2449162787604897
0.2313461416417518
0.2154272972281187
0.1976976625734721
0.178784598023596
0.1617865915790773
0.1474145850490083
0.1368549902687809
0.1313926686317402
0.1313223550065147
0.1367258369343736
0.1470549540315494
0.1605246655506081
0.1769220286851706
0.1995943849501097
0.2342413225468523
0.2710311450222251
0.273273754857853
0.1999225646743909
0.2419435890131303
0.2273227109207677
0.2114027025503482
0.1935356060180733
0.1745608054940487
0.1578050185298868
0.1444691908484612
0.1350098695827254
0.1309030363337422
0.1323704775614498
0.1394809507110016
0.1516613588569241
0.1668814406363124
0.1856925801476699
0.213633489720283
0.2532925634339463
0.2872494320506488
0.2656018856356549
0.1827147269513674
0.2381513593971769
0.2228194825188982
0.2069506910374448
0.189025447869456
0.1706201133845589
0.1547518143810949
0.1421171911634564
0.1334207775423309
0.1307315434739608
0.1340354289122231
0.1428034142683961
0.1562241263458815
0.1732360324438434
0.1957132361041283
0.2278896233316856
0.2689817775530114
0.2975542452252582
0.2615293748122403
0.1666086409082553
0.234505396977263
0.2189210472704661
0.2022967094940915
0.1844608045260378
0.1671281313600493
0.1520624425482029
0.1403474296960982
0.1326109658308367
0.1309213635342383
0.1357356707778685
0.1462088347513467
0.1609913050358656
0.1794389125813865
0.2053815210037636
0.2420703448796483
0.2834129131465214
0.2975741613537909
0.2476277516820454
0.1513853512867709
0.230999219199256
0.2151448926963668
0.198049186153257
0.1804426098638386
0.1641760277434461
0.1496775721611003
0.1385149357532972
0.1321601177658607
0.1315322665993183
0.1372425203454417
0.1492706633505703
0.165792578151371
0.1858063675394633
0.2140531411023299
0.2544031403257862
0.2972741698988607
0.2990875185099777
0.233824520630485
0.1383825731614316
0.2270804571195519
0.2108637224718795
0.1939435781374366
0.176946594733227
0.1611756245250861
0.147543190839595
0.1370691980458991
0.1318167698462316
0.1320374507343509
0.1386220246477702
0.1520792523939707
0.1698601960752839
0.1924421122466275
0.2236231656329984
0.2677469855253873
0.3121701336123455
0.3060994530323169
0.2274129530283121
0.1301337937451875
0.2234943249258151
0.2072166463273363
0.1904635624009917
0.1742622744623075
0.1584964396197652
0.14581842315517
0.1363061373153662
0.1315914447522649
0.1324454594292503
0.1401804604973142
0.1545462843326877
0.1734982617179662
0.1989179977890979
0.2329259631092939
0.2797464417963853
0.3200779501215001
0.3052122387069299
0.2205534780384872
0.1249055151586539
0.2200331162009494
0.2040558576017229
0.1874337048592554
0.1719076451287221
0.15645692022069
0.1443194922888417
0.1355775483637147
0.1312939469787123
0.1329775719948677
0.1417150293998398
0.157364868752114
0.1782721741728792
0.2056855182559352
0.2409478352212496
0.2895994149824696
0.3199539044233819
0.2929272443913953
0.2090319235676775
0.1193814862127447
0.2163186427017459
0.2010491141100497
0.1844585154479153
0.1692351175015531
0.1546052744007278
0.1427611245620076
0.1347075484397076
0.131138765525539
0.1336867471862597
0.1432927370973332
0.1601133445611706
0.1823658614439015
0.2103474453559022
0.2478430338403433
0.3003318900098986
0.3213581156855175
0.2822829701937794
0.1985567252156732
0.1144056356256213
0.2133162712086621
0.1980915119180111
0.181812529665457
0.1668371762684104
0.1530148440481048
0.1415480829824714
0.1339399265353995
0.131166632792722
0.1347050450893605
0.1454021430920256
0.1629316963337127
0.1858562357232986
0.2145493763741651
0.2552590623510076
0.3100710794294055
0.3259947927144729
0.2804005982667052
0.1921199864925868
0.1101104802153444
0.2109672379101317
0.1951917083215144
0.1796202183986333
0.1650972705853453
0.1515259766764063
0.1406602029294484
0.1333062393486415
0.1312211489445789
0.1357654411443842
0.1475461447104883
0.1659218444513041
0.1893499765229158
0.2193507627467086
0.2638310519500971
0.3189377763448223
0.3319353618662721
0.281523920637519
0.1879921255887376
0.1082376174409936
0.2087659724465104
0.1930234282069331
0.1778290833826156
0.1636840860158382
0.1502593531583993
0.1399525145641471
0.1328516486432318
0.1311567275835732
0.1365690238132032
0.1491788507324127
0.1676628964200193
0.1918237807489508
0.2231293698575715
0.2712143509060511
0.3260013273284459
0.3351913467757913
0.2825660724037524
0.1855281449801647
0.1063580463037962
0.2068227570205721
0.1911528119481026
0.1758463634524088
0.1622625663209488
0.1490803928386642
0.1389214083862763
0.1326122163760652
0.1314132761012034
0.1374359493033786
0.1507872587788268
0.1694548300153545
0.1945181853509275
0.2262948904000263
0.2762767821060071
0.3314251682087601
0.3385700806505522
0.2832597573509278
0.1830112543736605
0.1037746626586174
0.2051107685452563
0.1892593735377511
0.1740290420238089
0.1609789755615698
0.1480721334854187
0.1380623729417896
0.1324561946682046
0.1318710550336784
0.1385777043464199
0.1524015272760722
0.171929286191855
0.1972814878061524
0.2287443377267522
0.2813222706938598
0.3385631504123796
0.3430227039822661
0.2824972728999375
0.181155812534534
0.1029077014755645
0.2037822992206879
0.1878905489970889
0.1726756813872438
0.1600831325902485
0.1474416950447681
0.1376246358335358
0.1323704162207003
0.1322419835139388
0.1396915266184142
0.1538007322063173
0.1736287106089301
0.1995210038471438
0.2321358876365163
0.2864653122287608
0.3439611577157393
0.346063026255076
0.282205929443514
0.1806896624505959
0.1030377724609179
0.2024906962724902