/*--------------------------------*- C++ -*----------------------------------*\
| =========                 |                                                 |
| \\      /  F ield         | OpenFOAM: The Open Source CFD Toolbox           |
|  \\    /   O peration     | Version:  2112                                  |
|   \\  /    A nd           | Website:  www.openfoam.com                      |
|    \\/     M anipulation  |                                                 |
\*---------------------------------------------------------------------------*/
FoamFile
{
    version     2.0;
    format      ascii;
    arch        "LSB;label=32;scalar=64";
    class       volSymmTensorField;
    location    "0.0049";
    object      tauij_LES;
}
// * * * * * * * * * * * * * * * * * * * * * * * * * * * * * * * * * * * * * // 
 
dimensions      [0 2 -2 0 0 0 0];
 
internalField   nonuniform List<symmTensor> 
13597
(
( 0.1153628262283036 0.0239131536709615 -0.0090964121146688 0.0850049191363051 0.0158035947076661 0.1353145765303909 )
( 0.1139308312449806 0.0258537379393341 -0.0060154235333524 0.0797127210991608 0.0122261062239048 0.1344645183314438 )
( 0.1109218244551116 0.0275807817738625 -0.0003777426699604 0.0685004154240558 0.004069374144415 0.1336150565530355 )
( 0.1068027234981406 0.0275892915778275 0.0063155657070711 0.0576347346538745 -0.0066743812070783 0.1352468337117963 )
( 0.1036774785029794 0.0262632580742363 0.0113867335702356 0.0509540549650348 -0.0148449881973347 0.1370410046489321 )
( 0.1010664002799546 0.0247808056424572 0.0148397891177914 0.0462040810837526 -0.0207427891547456 0.1369113325788646 )
( 0.0979435338881632 0.0230925483394556 0.0166607717729153 0.0424988765462972 -0.0253688263228844 0.1351663163427268 )
( 0.0954365775095269 0.021316150358471 0.0175418118766743 0.0399935190124367 -0.0289845373880929 0.1322344662524157 )
( 0.0929465083793712 0.0193562937624167 0.0177178935781959 0.0385012956236845 -0.0316240047657903 0.12859010105434 )
( 0.0901241844868828 0.0177553073762127 0.0168326704354065 0.038273335633333 -0.0334157532633498 0.1241380392557692 )
( 0.0878517647929763 0.0165101614303774 0.0156584090118559 0.0393459520420308 -0.0346471982715142 0.1195829047603232 )
( 0.0864347474381305 0.0156066198977733 0.0144900143850264 0.0413025961196852 -0.0346333713806138 0.1157584087732685 )
( 0.0857874881646522 0.0149618801187702 0.0130883307709525 0.0441305390940489 -0.0338939664348648 0.1117899430313313 )
( 0.0854710428503897 0.0145033825875768 0.0119534222314346 0.0475170840439919 -0.0328188682748465 0.1086488377035046 )
( 0.0854235527215479 0.0143758956446773 0.0111604671965137 0.0511015326579312 -0.0315342425586613 0.1075350382330878 )
( 0.0855708590501611 0.0143655661825933 0.0106088296415849 0.0549264498223628 -0.0302997746040154 0.1075165029846926 )
( 0.0862335461368251 0.0147282760159482 0.0107649923239622 0.058631390462414 -0.028952500605933 0.1077517019720929 )
( 0.087615932596417 0.015383658741802 0.0114485890202245 0.0618542528514966 -0.0273696462949277 0.1087066547923025 )
( 0.0894009679522829 0.0163297696712015 0.0125050600326864 0.064828246635071 -0.0249045487022375 0.1116591758091858 )
( 0.110393323541187 0.0251872189216797 0.0051720018426989 0.0926619966219917 0.0185038110054399 0.1472643144288581 )
( 0.1065221612544229 0.0242364617198634 0.0092996540684683 0.0851189105516073 0.0137584285140664 0.1502852732518305 )
( 0.0999695047988609 0.0214039134714569 0.0143561516442358 0.0695196453568348 0.0026755554844478 0.1538208919938058 )
( 0.0943996818827828 0.0174487830652546 0.0181014193062779 0.0564877415033316 -0.0103203190898342 0.1594012512554578 )
( 0.0907588382625061 0.0140654234042233 0.0189328160483631 0.0487369604098945 -0.0191612802820068 0.161033165136261 )
( 0.08791265434855 0.0115021474533352 0.018739076128502 0.0434432325762113 -0.0262841616788555 0.1602809627689754 )
( 0.0861915991225941 0.0100125780782922 0.0169308014702067 0.0395411777249363 -0.031657388738561 0.1566187899374798 )
( 0.084810703668024 0.0093959621577955 0.0133929884165575 0.0371013822880244 -0.0354808042901995 0.151528859685133 )
( 0.0837503320582632 0.009258434210601 0.0097730308352335 0.0362995335587498 -0.037778171145628 0.1459458313752372 )
( 0.0828232542894831 0.0100509368589962 0.0059883707612632 0.0364595948773429 -0.0387822950096548 0.1400001058905539 )
( 0.0825779442917384 0.0116719451133891 0.0023739030496329 0.0377759715866468 -0.0385602782003219 0.1347783457040372 )
( 0.0829864444195207 0.0135242486573059 -0.0001928485107257 0.0402119374068644 -0.0367486346835082 0.1318636087932364 )
( 0.0835151868604345 0.0156479639098586 -0.0016303884869659 0.0431739248269316 -0.0342453599705388 0.1305396229935929 )
( 0.0847129158612966 0.0180068195972859 -0.0017417686065077 0.0464150697337109 -0.0310788538302587 0.1309396130978853 )
( 0.0861362053331166 0.020371125071609 -0.0006369037976136 0.0499710153585273 -0.0275790859363757 0.1341424990391839 )
( 0.0867002423380433 0.022600002942075 0.000973730968535 0.0539513142155519 -0.0243667803193064 0.1388052272785412 )
( 0.0869190243608467 0.0245895734085605 0.0032065329828474 0.0574820503296224 -0.0212493307673348 0.1436992685754688 )
( 0.0879076635984168 0.0265545414568708 0.0064335592221059 0.0605355354350658 -0.0182619967836189 0.1492546779504078 )
( 0.0895360873852157 0.0284475036011838 0.0099562656092397 0.0639183197102349 -0.0151695048036357 0.1557549288564914 )
( 0.1009187481996434 0.0196849495405967 0.016974595142475 0.0953651040982173 0.0192778448004261 0.1680774607844782 )
( 0.0959626132478016 0.0161607183064091 0.0205573995167869 0.0856569853174837 0.0133454469837201 0.1756120311802334 )
( 0.0903884330868328 0.0105911812556677 0.022600193361617 0.0677361568741459 -0.0009154809185303 0.1820974288324125 )
( 0.0869530197593214 0.0056688825432523 0.0207342007212466 0.0545184710178358 -0.0163270513313186 0.1877476625539928 )
( 0.0856816753497682 0.003230047182376 0.0161795629668594 0.0475854202658085 -0.0259766126096205 0.1870148658961578 )
( 0.0855453832053144 0.0024430786574026 0.0112998907092459 0.0431676366494813 -0.0336972377105877 0.1824038191351857 )
( 0.0857599671875213 0.0031716957071555 0.005386422335725 0.0405795525146165 -0.0389125060005 0.174784127939672 )
( 0.0860045753851474 0.0049745485298857 -0.0011450925456787 0.0395764616494936 -0.0415879678550977 0.1677534752269897 )
( 0.0862128741070555 0.0075777295377624 -0.0062813733393515 0.0396355989264681 -0.0420054740110212 0.1608715641492488 )
( 0.0860315925058539 0.0106699747664464 -0.0099429794066985 0.0406089305534719 -0.0406109994502018 0.1545344204695318 )
( 0.0858217987555477 0.0138577940446971 -0.0119251679521998 0.0420546805002311 -0.0372075479442444 0.1510889848097361 )
( 0.0857755815297448 0.0169940509587823 -0.0116528824858126 0.0445143414238515 -0.0325292419866736 0.1516125246914934 )
( 0.0857206720611048 0.0200800618265929 -0.0089161584274592 0.04765141597485 -0.0273619269726657 0.1553316922858015 )
( 0.0858311543960604 0.0230860568930362 -0.004564691928462 0.0508559523888934 -0.0220623200666176 0.1611370452822129 )
( 0.0861043817566697 0.0257994598722193 0.0005466413873386 0.0541525439548097 -0.0171635207261726 0.1685736061312098 )
( 0.086387268638999 0.0280496763515976 0.0057734333132238 0.0573160695094941 -0.0127885291534957 0.1766155559249523 )
( 0.0867381287980977 0.0299135986768069 0.0109756025317343 0.0600434274130397 -0.0088058403023934 0.1844580778474321 )
( 0.0872788457388413 0.0316406460237395 0.0168122099796966 0.0625564637923145 -0.0049281235220775 0.1924898338253653 )
( 0.0879131767855606 0.0331264634428383 0.0229527489764683 0.0652016088037207 -0.0013132903256145 0.2004752090823253 )
( 0.0917580241730015 0.0127277596713052 0.0239340147663645 0.0950155444964248 0.0194406332104246 0.1916696386885693 )
( 0.0876274127479565 0.0079149511150474 0.0239555341526552 0.0836998757986106 0.0120371471785056 0.2011918337684043 )
( 0.0849341363103267 0.0025649383211587 0.0197111420603628 0.0657198773675592 -0.0048613577290365 0.2061074733704001 )
( 0.0840380140920962 2.430457161811821e-07 0.0115935282467585 0.0543862178338799 -0.0224318464710092 0.2076261575056403 )
( 0.0842948597555579 0.0004109952299008 0.0029163178169633 0.0495937689177142 -0.0328147723655216 0.203085228589462 )
( 0.0846746605529463 0.002236801203771 -0.0048834117331672 0.0469900392523788 -0.0395166591761853 0.1945566173006196 )
( 0.0842628230245498 0.00522480945499 -0.0118136371327138 0.0458848792542599 -0.0427395101552422 0.1838083043061102 )
( 0.0838418787559421 0.0087243053945483 -0.0168696082488691 0.0461361950345179 -0.0427434842571018 0.1751360532079366 )
( 0.0831690555126511 0.0124742640081926 -0.0187416638800466 0.0465870597856739 -0.0399052083418116 0.1686340236100423 )
( 0.0822326208975349 0.0164396971651945 -0.0177983173658072 0.047694242341388 -0.034874972234217 0.1650647954571834 )
( 0.0810778445822669 0.0201617213864979 -0.0137402878678005 0.0490586717694227 -0.02758655836861 0.1652837478826423 )
( 0.0808500110389553 0.0236057252313006 -0.0069089645836667 0.0510963781764252 -0.019725863146165 0.1698268805296475 )
( 0.0812474230098839 0.0269231211650659 0.0021971475109174 0.053699944892771 -0.0119703625256972 0.1776190088806083 )
( 0.0820969642088746 0.0302848288664719 0.0121846642439615 0.0565798087517244 -0.0046840643678858 0.1877033387000687 )
( 0.0835130661864981 0.0331816183305259 0.0213349472903446 0.0594026256000722 0.0015440293610726 0.1981937563302779 )
( 0.0852528460638657 0.0354392760034306 0.0294048100576239 0.0618138837785821 0.0068202904601751 0.2078196723330818 )
( 0.0869482986333351 0.0371546525266801 0.0366168387745851 0.0636790929614482 0.0112522714527199 0.2163361694440871 )
( 0.0888573172176483 0.0388382821691184 0.0439177978318861 0.0654333725470167 0.0154294591457829 0.2248187546215125 )
( 0.0908918302295957 0.0402552663446615 0.0511117610084045 0.0672825446701588 0.0194804865590161 0.2335919553148571 )
( 0.0840944194800202 0.0067552936254568 0.0221717333954193 0.0940666376675313 0.0200834941074105 0.2129132328248127 )
( 0.0817495145637077 0.0025765384361303 0.0169840812245071 0.0808107575391252 0.0098158085488396 0.2189133362271632 )
( 0.081237067595148 -0.0004238239487265 0.0070756357262464 0.0644200578213687 -0.0098387437107229 0.219581072412105 )
( 0.0816257466712341 7.450810197710276e-05 -0.0047109091597645 0.0570604865634496 -0.0282160140921447 0.2172918812867624 )
( 0.0816268414592698 0.0027957230068484 -0.0141945667964199 0.0547217621408305 -0.0376514333504263 0.2083911607399016 )
( 0.0808659544887012 0.0067148233579621 -0.0206896487742914 0.0538975952439386 -0.0419856547316276 0.1972452888154948 )
( 0.0798651313689852 0.0112887356568228 -0.0239370619952262 0.0537793858362279 -0.0416057185502477 0.1855722877423226 )
( 0.0786819170710029 0.0157571821396484 -0.0228192769849457 0.05402942246239 -0.0372435368979757 0.176916890757925 )
( 0.0778836442630389 0.020092894306118 -0.0177652148707826 0.0544932067998454 -0.0303167930418641 0.1726163793784653 )
( 0.0780454197110281 0.0244541362540035 -0.0093012705689013 0.0552856304617086 -0.0213331228095504 0.1724846104429716 )
( 0.0792214791949262 0.0290446309121887 0.0024643303839256 0.0567708292896571 -0.0109015503502413 0.1772824716502894 )
( 0.0816195432970202 0.0333660641676037 0.0157577615455348 0.058809869445699 -0.0005048593306861 0.1864005804295559 )
( 0.0847582015398388 0.0374472231024616 0.0293837412374405 0.0611491509607574 0.0090179935919293 0.1981631751677305 )
( 0.088355093289568 0.0413018997681954 0.0420735336117315 0.0637801829299567 0.017171641776262 0.2111139974554073 )
( 0.0916799201107315 0.0443210103955214 0.052441894008847 0.0660011102020007 0.0236320061445483 0.2228753187630431 )
( 0.0944218233992323 0.046644977139243 0.0607553653860749 0.0679008299768969 0.028839055849802 0.2333058322125802 )
( 0.0964146561547411 0.0481832801354418 0.0672583318009904 0.0692912886318007 0.0327813776833213 0.2420180213361907 )
( 0.0981043419373529 0.0493455983279032 0.0726810423157466 0.0704071938566427 0.0358832339619452 0.2498755985404353 )
( 0.0992786950915561 0.0499981656310319 0.0770835307261477 0.0713428009457401 0.0383146297379039 0.2572098112982759 )
( 0.0791134028607036 0.0030596472354924 0.0127803221003192 0.0927657895425399 0.0197146523559562 0.2266690873587311 )
( 0.0780630130432833 0.0002533842047724 0.0028162221268653 0.0794755615326883 0.0064986671237465 0.2280128721254321 )
( 0.0780443749250458 -3.884931488944143e-06 -0.0096379546277268 0.065715227381828 -0.0155872240884477 0.2235899711949557 )
( 0.078449812163448 0.0030671798682198 -0.0205361708991339 0.061845508496026 -0.0326275920758685 0.2174931891131272 )
( 0.0781483719070453 0.0072133105804719 -0.0263161997692456 0.0611659321555544 -0.0391619779554111 0.2056925983964428 )
( 0.077519692616032 0.0123823166137932 -0.0271554247269065 0.0610906960279855 -0.0400210148331519 0.193619297742389 )
( 0.0776246119497369 0.0180265735238471 -0.0234658029400828 0.0613490107578986 -0.0355888185854161 0.1837951994059298 )
( 0.0778460069496236 0.0233174891539487 -0.0144857640215445 0.061717319418986 -0.0271344470218512 0.177451659424972 )
( 0.0794111066307047 0.0288888673524542 -0.0014836869998389 0.0624833494742925 -0.0161882588769005 0.1762363014341872 )
( 0.0829314003803314 0.0344347784168857 0.0141775050094043 0.0636310397127134 -0.0037079921897896 0.1802789866618263 )
( 0.0873274632327223 0.0396846144760833 0.0306798275208688 0.0654792341044985 0.008433045650134 0.1892148926753695 )
( 0.0919708860427106 0.0447419041662781 0.0466042119987546 0.0675950964926217 0.0198792156846249 0.2016744028755158 )
( 0.095794138620154 0.0489180133769233 0.0601005509373401 0.0697476759619539 0.0292645318922265 0.2153227286318876 )
( 0.0985733262840313 0.0518291428407802 0.0703074589407595 0.0716231206321113 0.0360016761105314 0.2277561283747683 )
( 0.1006860019978776 0.0538636627642985 0.0775660243037251 0.0731342684367668 0.0408465370456577 0.2383512140081968 )
( 0.1014067934669405 0.0550928980380611 0.0820357353757081 0.0742047481069437 0.0440695305425771 0.246386373127605 )
( 0.1013506217398482 0.0556280284505024 0.0847950947600232 0.0748019908430457 0.0459826080998563 0.2522079593758795 )
( 0.1004874341142794 0.0555556214797343 0.0859711065357343 0.0751093619469358 0.0467455217691174 0.2561594322829841 )
( 0.098956873675167 0.0549617872299712 0.0855058777551564 0.0750777622591348 0.0464087437086606 0.2586865441914943 )
( 0.0766018259114515 0.0006925515145952 -0.001469391100954 0.092191165387244 0.0176047015748371 0.2326595189761025 )
( 0.076641837170468 -0.0005334465238422 -0.0131889643458386 0.0802148067505241 0.0015491672642699 0.2303671291284823 )
( 0.0769811935595584 0.0016595805272428 -0.0239660251593522 0.0698190750013463 -0.0205928972505806 0.2231814472783664 )
( 0.0772700017291138 0.0068126452873321 -0.029973850061403 0.0677709542051607 -0.034361119112358 0.2133689457138876 )
( 0.0778732648162454 0.0125008746896225 -0.0292582629726249 0.0677815224256988 -0.0373423754948162 0.2007021189188934 )
( 0.0789743318997865 0.0186882772971156 -0.0225919792465559 0.0681097389657881 -0.0339624889158771 0.189684614422854 )
( 0.080758466994569 0.0250587340729258 -0.0102780251263754 0.0686557280590951 -0.0255656925622495 0.1817893216101388 )
( 0.0839379080251618 0.0313484782829581 0.0053381979506523 0.0696096607584672 -0.0139632636058553 0.1785930295513031 )
( 0.0884921845362458 0.0380926477792824 0.0233815882140905 0.0711326335570871 -0.0003420938999136 0.1804475523434136 )
( 0.0933210820998396 0.0441655900786081 0.0415116258792157 0.0726007333620394 0.0135129596405805 0.1872562797910201 )
( 0.0973325833133748 0.049012698971518 0.0575511166816298 0.0741993960192186 0.0257097290713009 0.1975057595565129 )
( 0.1009029309205641 0.0534247279864419 0.0712965405749656 0.0759763158587607 0.0361758491556603 0.2107072442114188 )
( 0.1029443347569216 0.0563362048925712 0.0805865096405101 0.0773879032729425 0.0434144062180385 0.2232113678504756 )
( 0.1030204088862374 0.0577317813903269 0.0860008938498926 0.0783079368471801 0.0477096621587111 0.2326330295488504 )
( 0.1021775539187637 0.0581939101249809 0.0883992547074498 0.0789877847087047 0.0500796168253876 0.239591082485784 )
( 0.1006148876208939 0.0580986648214423 0.088293268147269 0.079369302105533 0.0509429805132833 0.2432040232529583 )
( 0.0983730468354563 0.0576996331452047 0.0869009620701018 0.0793592526940013 0.0507882726506689 0.2444172947609032 )
( 0.095767736067064 0.0569456962412817 0.0842333010761994 0.079071465072423 0.0495389549815284 0.2436960777207706 )
( 0.0929541907344164 0.0560251619538107 0.0802353161160846 0.0785155466978032 0.0472870406578221 0.2409371252449008 )
( 0.0768019107153381 -0.0009183471848552 -0.01684396755858 0.0924624489155321 0.0144766586020408 0.234392373656285 )
( 0.0775094599456698 -0.0003682855047818 -0.0265757269743727 0.0822751768069837 -0.0035205734309573 0.2291014345005938 )
( 0.078433167239771 0.0043235735076395 -0.032671018281559 0.0747599194929072 -0.0241728267586382 0.2206077259132239 )
( 0.0799304307790522 0.0109801759694391 -0.0319422131381965 0.073751207441891 -0.0338625415511111 0.2089916734293456 )
( 0.0820327808392456 0.0178793146819215 -0.0233690796647868 0.0743245487267175 -0.0329867463922441 0.1963348535414722 )
( 0.0853091372046905 0.0251455528091119 -0.0085958211102346 0.0752413687438237 -0.0255602617023214 0.1864784950562428 )
( 0.0895663564163947 0.0326685218015595 0.0099086871105132 0.0765451742540617 -0.0135160635144491 0.1803747488887835 )
( 0.0943065825108074 0.0396387031864538 0.0285811027177214 0.0780007465655048 0.0003767235269091 0.1799049946160561 )
( 0.0991552102341547 0.0462069272830806 0.0478386555152661 0.0796798272456214 0.0149589034623411 0.1838998903511619 )
( 0.1022823500184567 0.0517552447974231 0.0646485593840548 0.0808901586921749 0.0286901689485197 0.1913306809263719 )
( 0.103874546914462 0.0553394289667052 0.0770649055610595 0.0819263625654098 0.039447907595867 0.2008877696834277 )
( 0.1045532573015345 0.0579179492766769 0.0858513378459836 0.0830483045407445 0.0472892862873832 0.2122287451359132 )
( 0.1035269899306899 0.0591977317682395 0.0896683004990667 0.0835366988737767 0.0518420520946574 0.2215237420083993 )
( 0.1012176746793127 0.0592344983218236 0.0896357630229022 0.0837661311483995 0.0534987539363313 0.2265827256854012 )
( 0.0985046108208171 0.0587928681207109 0.0876934506991434 0.0839264353775905 0.0535958556114105 0.2289242693988947 )
( 0.0958216626282417 0.0582733077289808 0.0844486313469113 0.083981902070199 0.0528017550259365 0.2284737906104613 )
( 0.0928326863944539 0.0576893026246288 0.0801645907973453 0.0837691393854726 0.0511963743951999 0.2258089728471008 )
( 0.0899819390284036 0.0571022443142723 0.0749554948231124 0.0832181990859526 0.0486223013129504 0.221524679063122 )
( 0.0874852044453697 0.0567213922945657 0.069102008330005 0.0824561352659058 0.0453281337999758 0.2155126951776876 )
( 0.0792807148420256 -0.0018659903757923 -0.0299162557442065 0.0935328758518748 0.0109141577297273 0.2333201027440659 )
( 0.0806565975053414 0.0001164258521587 -0.0359516358999108 0.0855919618688061 -0.0076549702188883 0.2262899885190766 )
( 0.082405802256609 0.0069099745827078 -0.035342067941811 0.0800348570538952 -0.0261489678233339 0.2166377923633103 )
( 0.0851090805800409 0.0150624731429134 -0.0263496621501749 0.0796389323493818 -0.0316432138840506 0.2044950284789932 )
( 0.0886637970641014 0.0232039896411157 -0.0104206896073467 0.0809716734475986 -0.0269559976370147 0.1922741291428663 )
( 0.0939642155530967 0.0316008747411518 0.0095973567184324 0.0827498638407015 -0.0161879900768952 0.184601044432967 )
( 0.0990904097506084 0.0395560232020763 0.0301953051334105 0.0847115153200225 -0.0019884914019254 0.1803494519535905 )
( 0.1028129237957742 0.0464726958397334 0.049476792744936 0.0861407296889515 0.0132577437828349 0.1803421209192603 )
( 0.1059973101775063 0.0520512408589348 0.0669008775646007 0.0871556399173101 0.0278890806410968 0.1846998116077001 )
( 0.1068838241991234 0.0561571776401127 0.0798615815332826 0.0880940050389063 0.0403221354788837 0.191230225468858 )
( 0.1058430065719928 0.0581958674770875 0.0875248064405208 0.0884944955454898 0.0488098263362526 0.1989248549272688 )
( 0.1035573309620803 0.0589714379249511 0.0906790116160464 0.0886445485334343 0.0537307934212877 0.2066051263458287 )
( 0.100050748161389 0.0592055074250039 0.0897427459630335 0.0887763434780081 0.0559272839157487 0.2117700933306646 )
( 0.0963625980713409 0.0587662501752987 0.0856851628267577 0.0887915429709968 0.0556368205876928 0.2131650305632496 )
( 0.0931163907169118 0.0582199092523329 0.0808255188926446 0.0887233290235198 0.0542152755550133 0.2120295564149709 )
( 0.0902937866303821 0.057918574720999 0.0756473488305191 0.0887137575051365 0.0522955768999632 0.2089688303117273 )
( 0.0875991822947187 0.0577359404142407 0.0697474919506961 0.0884526429820937 0.0496844298992754 0.2041990671314587 )
( 0.0855780673284741 0.0580010471526489 0.0634916341277701 0.087989643986696 0.0464875746962162 0.1983627878304064 )
( 0.0844355616146631 0.0588185180066867 0.0570546726037966 0.087345888502782 0.0427169547853966 0.1913485833058984 )
( 0.0835199130691332 -0.0025955341711913 -0.038240257537128 0.095685840285589 0.0058505738083012 0.2313543200079293 )
( 0.085843947317801 0.0010237162226365 -0.0394655594687072 0.0886352745644366 -0.0117996844920865 0.2228617501327034 )
( 0.0879190379713815 0.009575077061077 -0.0313548415779657 0.0847142838934752 -0.0263854171454371 0.2118697219351385 )
( 0.0919602787288124 0.0191162289061631 -0.0151490373340551 0.0858243613960643 -0.0278001930840778 0.1999810275561703 )
( 0.0970087637251969 0.0286235715057713 0.0057620916987319 0.0879973217644864 -0.0196223754568311 0.1893322053309268 )
( 0.1022348626775441 0.0372523777641391 0.0276506943920033 0.0902181664729468 -0.0065292329320847 0.1829222457295911 )
( 0.1063870461870809 0.0446991525827235 0.048257961516409 0.0923817784075464 0.0086587331446499 0.178851476276409 )
( 0.1087062273085043 0.0510768652620745 0.0661597339878088 0.0938803330747191 0.0243424633302144 0.1782267604886262 )
( 0.1089639633964938 0.0551814790139277 0.0791995271801556 0.094502558865863 0.0376192916464995 0.1808183171936203 )
( 0.1072298429411642 0.057531804748458 0.0872568154942531 0.0946498697634808 0.0478265497239091 0.1855556681394931 )
( 0.1037321857737705 0.0585415776188749 0.0900035700843736 0.0941438571736178 0.0542530706305226 0.1913451851164793 )
( 0.0992627231343187 0.0584173907539722 0.088322038983115 0.0935038030544799 0.0568945381391212 0.1961162106392165 )
( 0.0947951050481219 0.0581709384878041 0.08400218541335 0.093533989835543 0.057226965146892 0.1982814243899257 )
( 0.0909082865318414 0.0579764185371888 0.0779971368829218 0.0935830771171076 0.0558334440003212 0.1978055367063002 )
( 0.087889559793819 0.0578776882945194 0.0717445568619871 0.0936761062145693 0.0535307380354969 0.1948721920527772 )
( 0.0856590099040572 0.0582172122575641 0.0654671949333227 0.0939274431134256 0.0507658234100601 0.1903854219154907 )
( 0.0840876976672413 0.0591379201872113 0.0589748322148744 0.0940039086380211 0.0476682788360586 0.184904519011899 )
( 0.0837002298619292 0.0608908761255746 0.0526598321811186 0.0939652078096324 0.0442119825954942 0.1784632051054639 )
( 0.0847048830941918 0.0634134800818948 0.0466005502901238 0.0936756626205478 0.040308908206175 0.1710879519830718 )
( 0.0885037824756883 -0.0029198369190642 -0.0419401774073191 0.0979600699197845 0.0012539499579643 0.2294376511429423 )
( 0.091287028556611 0.0024088772509611 -0.0373357670267466 0.0918193312262078 -0.0149397864954082 0.2194994239254262 )
( 0.0939477198002418 0.0128622105969164 -0.0227088825870323 0.0897909717831443 -0.0256624322831908 0.2079021576299169 )
( 0.098739235123191 0.0233034032554434 -0.0024160943638062 0.092042220049971 -0.0231622778530349 0.1964000621102885 )
( 0.1037654140400203 0.0332178842800269 0.0206630063518316 0.0947766112878145 -0.0119703713614263 0.1864014674958798 )
( 0.1074650986608498 0.0419370080447651 0.0427724319642488 0.0973406491127803 0.0027968579887765 0.1792085008366304 )
( 0.1102954561037181 0.0487129347965641 0.0619185308924678 0.0995240915514114 0.0181623736507242 0.1747726689303157 )
( 0.1109612968799413 0.0534395887539014 0.0762506388238939 0.1008018596663591 0.0327164893246465 0.1733837847652124 )
( 0.1083267689274356 0.0561044851928088 0.0847508082283227 0.1008333462150931 0.0443316962082527 0.1738380804185949 )
( 0.1044633671173022 0.0573216564550232 0.0887216214492867 0.1000853638826012 0.0525038394788238 0.1771433315273412 )
( 0.0994583624192611 0.0574566009741453 0.0874679367215702 0.0988996534344594 0.0568070226263402 0.1810329504844881 )
( 0.0938902033462123 0.057113211421603 0.0825491436470357 0.0981377161446204 0.057906074658871 0.1838669370359382 )
( 0.0894369005939532 0.0569731914987012 0.0763966514897281 0.0981229667540561 0.0570726358777181 0.1845943940286432 )
( 0.0859814965030073 0.0573381941950804 0.0693839525482949 0.0983112054445689 0.054848881753596 0.1829965489460747 )
( 0.0836682222154859 0.0583720446572181 0.062323937187628 0.0990347826521026 0.052008788156249 0.1793402967607943 )
( 0.0827320113591519 0.0601181432299022 0.0556360067003134 0.0999325979449336 0.0488165574888782 0.1742320909293262 )
( 0.0830406064074642 0.0627118096005538 0.0494360409362752 0.1008149792143207 0.0455630505945879 0.1684960156118882 )
( 0.0846827172428233 0.0661774677424037 0.0437211763126354 0.1014279212305881 0.0421056174197286 0.1621524315633032 )
( 0.0881346554880103 0.0707247473181882 0.0382595438489204 0.1017387627848932 0.0382850811627474 0.1552646848154594 )
( 0.0936774878762354 -0.0030403032634402 -0.041801235930614 0.0999886259798943 -0.0026224283824887 0.2273144216392043 )
( 0.0968977544708486 0.004104785834875 -0.031598268387337 0.0953155711061982 -0.0175621412568907 0.2165231721388478 )
( 0.1004035090104398 0.0164053115867306 -0.0118372383291444 0.0952948950315804 -0.0240701450537395 0.2049397202511644 )
( 0.1050578339315888 0.0274948590399489 0.0106617990174474 0.0982429905691158 -0.0176214998869849 0.1936863849964153 )
( 0.1086907923904566 0.0370789533018479 0.0340301546145215 0.1016394554279016 -0.0046249177721864 0.1832745853151342 )
( 0.1108119346651646 0.0453651607322554 0.0549047504790537 0.1042985503328729 0.0111307001678588 0.1749527521779989 )
( 0.1113015691283366 0.0510265977161273 0.0707752938116867 0.1057081669225384 0.026104654559085 0.1696586611477767 )
( 0.1090238105756311 0.0542351304560019 0.0810063549927399 0.1061085365735289 0.0391862201757477 0.1665237081792159 )
( 0.1047280556670164 0.0558010082211247 0.0860823043405373 0.1054448393027394 0.0490788068416194 0.1655956539595039 )
( 0.0995906470974043 0.0559977939318726 0.0863883457222522 0.1041850921758184 0.0550864680714556 0.1674787043857553 )
( 0.0938100893363441 0.0557006611169749 0.0820993120271845 0.1029893972106917 0.0576891010317818 0.170019268273875 )
( 0.0884371980385419 0.055726819556105 0.0755348878120562 0.1026440572187453 0.0577660287742809 0.1717921517335537 )
( 0.0844765165259035 0.0563414104162676 0.0682135119119646 0.1029647608863076 0.056056425803842 0.1716853991811393 )
( 0.0820621310671701 0.0578787311851912 0.0607916105327328 0.1036856146267612 0.0533029210178151 0.1696651983955495 )
( 0.080982069391719 0.0604362494281271 0.0536141891690641 0.1052393616124969 0.0502176435567337 0.1657247900399325 )
( 0.0815271748004998 0.0637755877980925 0.0471808938219983 0.1070538856277463 0.0470028444094954 0.160668178209806 )
( 0.0838163599547762 0.0681100449141882 0.0416914803414145 0.1088516981840611 0.0438228873061695 0.1552072960313132 )
( 0.0877718765425023 0.073599885476901 0.0366996952012554 0.110376768719438 0.04043226779538 0.1494036822738962 )
( 0.0937936973296838 0.080336971716506 0.0318874888983929 0.1114466105131745 0.0366557262564587 0.143114986765852 )
( 0.0988444721538253 -0.0023351315569413 -0.0390051482774463 0.1021438331891105 -0.0058341949733188 0.2262188378855608 )
( 0.1020875749604515 0.0060915295229686 -0.0246755046114995 0.0986765849578508 -0.0180128923304341 0.2151098299101777 )
( 0.1058517251398264 0.0196112129006894 -0.0015248068963419 0.1004268178771774 -0.0207634532727732 0.2033905025638087 )
( 0.1096125435120811 0.0311988053147977 0.0228791744913116 0.1041841206004052 -0.0117917158024236 0.1912407259578465 )
( 0.1121755743864273 0.0404031022310561 0.0454924940698466 0.1078391481561883 0.0022688092342272 0.1801795325096097 )
( 0.1123350775664151 0.0475584140176451 0.0636220216287019 0.1103520727506307 0.0180045893226068 0.1700503979677614 )
( 0.1100580413083713 0.0520123661627703 0.0759439842389422 0.1111502947765473 0.0323671883762457 0.1626862433648156 )
( 0.1052062132703693 0.0540914936274464 0.0824276590621506 0.1107510000002299 0.0441047940505029 0.1582052933653622 )
( 0.0998825292277823 0.0546490728278227 0.0843624867290289 0.1097424899683545 0.0523463040466747 0.1570993672486398 )
( 0.0941472293105304 0.0543533670281749 0.0819037352762883 0.1080974101704383 0.0566783863593987 0.1582646980408018 )
( 0.0879057825876877 0.0542004955931522 0.0756353826715191 0.1069984911978501 0.0580199283320946 0.1599253323490518 )
( 0.0833318370063899 0.0549669490923584 0.0682277574865582 0.1071956637016348 0.0571818750513618 0.1614042418257056 )
( 0.0803083092578899 0.0568712526519851 0.0602638254204863 0.1082709213846864 0.0547842393526161 0.1608422145491889 )
( 0.0791808685961286 0.0600191817622595 0.0526578144072176 0.110214380536818 0.0516801018950749 0.1584523262687347 )
( 0.0797615422432976 0.064027068721145 0.046225491688024 0.1128590092931994 0.0487396874935357 0.154579679759241 )
( 0.081821990749759 0.0688730042542902 0.0406073673371073 0.1156059411452391 0.045688247721711 0.149881408939835 )
( 0.0859459499335179 0.0753065708940564 0.0355811858109939 0.1186626331765385 0.0424386833272728 0.1450244304103519 )