/*--------------------------------*- C++ -*----------------------------------*\
| =========                 |                                                 |
| \\      /  F ield         | OpenFOAM: The Open Source CFD Toolbox           |
|  \\    /   O peration     | Version:  2112                                  |
|   \\  /    A nd           | Website:  www.openfoam.com                      |
|    \\/     M anipulation  |                                                 |
\*---------------------------------------------------------------------------*/
FoamFile
{
    version     2.0;
    format      ascii;
    arch        "LSB;label=32;scalar=64";
    class       volVectorField;
    location    "0.0049";
    object      U_LES;
}
// * * * * * * * * * * * * * * * * * * * * * * * * * * * * * * * * * * * * * // 
 
dimensions      [0 1 -1 0 0 0 0];
 
internalField   nonuniform List<vector> 
13597
(
( 17.333214796017813 1.6540679603305417 0.0412428485828254 )
( 17.331935608420537 1.7071108582600936 0.0353379076265547 )
( 17.341386486557013 1.8162909331652115 0.0225277391529018 )
( 17.360781314217217 1.9555100869513968 0.006783131401358 )
( 17.38020485750846 2.0714041107002266 -0.0050585044921415 )
( 17.39433995360096 2.1647268526381462 -0.0132322427331224 )
( 17.41194018731342 2.2557703382514056 -0.0198080845669711 )
( 17.432962339341042 2.3503699027561518 -0.0247542479962314 )
( 17.45662738630906 2.4428982824903573 -0.0282336382861697 )
( 17.481693503218068 2.5339069307825723 -0.0300450288531589 )
( 17.507959018825346 2.631685554812666 -0.0301380627150574 )
( 17.538488570328113 2.725855777194216 -0.0296523281203653 )
( 17.570584418277072 2.816312704770288 -0.0274142140122841 )
( 17.602494812942894 2.9102968275854506 -0.0232474506508589 )
( 17.634368665454343 3.005019355158612 -0.0183905415913576 )
( 17.66828299156224 3.097678502218 -0.0126163093208973 )
( 17.70468547404641 3.185255526358843 -0.0069809243043351 )
( 17.74085349163714 3.271058892778611 -0.0010007679232176 )
( 17.777536252839788 3.359524529178864 0.0053299084756524 )
( 17.20800763206736 1.685762510387938 0.0409926835401031 )
( 17.190727030943375 1.7547909226455256 0.031672851353197 )
( 17.18213309834297 1.8987192020103916 0.0117256177029962 )
( 17.17772400527635 2.060223488183364 -0.0096268233507999 )
( 17.172989405135404 2.182198777748138 -0.0228605141887024 )
( 17.16718433799277 2.2930629828404587 -0.0326668291256449 )
( 17.164888148012935 2.4015967072138418 -0.0401917499380785 )
( 17.1626492400998 2.5117306579855314 -0.0455949604393833 )
( 17.162852577502772 2.620507899809217 -0.0486846861290793 )
( 17.162230923370043 2.726022655043324 -0.0492807876322823 )
( 17.159668978832812 2.838585504699997 -0.0478877804028826 )
( 17.155309177996628 2.95382611902569 -0.0457281929533184 )
( 17.146884490884016 3.066683600438794 -0.0418619503039941 )
( 17.139972829429958 3.1799708146759285 -0.0361279749908637 )
( 17.135226405036644 3.289296972416261 -0.0304568861572012 )
( 17.132618548942226 3.3924974716485274 -0.0251697209843983 )
( 17.130754434824816 3.4868066970280447 -0.020541781090604 )
( 17.127153439709012 3.582199356270737 -0.016218451174078 )
( 17.128755220256185 3.677163796713385 -0.0124070379178353 )
( 17.081684490779097 1.71367920095417 0.0353401778812349 )
( 17.04505830144854 1.79506674068102 0.02167118820879 )
( 17.013945615026483 1.9616440126221597 -0.0035142722600599 )
( 16.982805114127235 2.1375008162414084 -0.0272745663970521 )
( 16.950730376873143 2.263793387855912 -0.0400612328679055 )
( 16.922608044062116 2.3854059096008364 -0.0487768121551664 )
( 16.895886017653293 2.506034395290429 -0.0545157902809522 )
( 16.862226108477767 2.62275207866506 -0.0582349750940068 )
( 16.829416593254003 2.739810176375928 -0.0593046607202287 )
( 16.79607185509377 2.861943127172234 -0.0575902447791729 )
( 16.757855744943285 2.985753449005135 -0.0540834704607766 )
( 16.71735857749547 3.1147585301554974 -0.0499157660885821 )
( 16.67576352133946 3.245310853114537 -0.0450633944896465 )
( 16.636846253688088 3.368651268768088 -0.0400277526531344 )
( 16.602853325841888 3.4810366689213788 -0.0361602304578671 )
( 16.574109584446674 3.5811708790345915 -0.0335521699793838 )
( 16.545003750077147 3.6712194237183775 -0.0320675527649603 )
( 16.51522727016916 3.761781234938178 -0.031445704079727 )
( 16.49446710095419 3.857158988772068 -0.0315495141920096 )
( 16.9491497142852 1.732985936982472 0.0250975060168383 )
( 16.892640474107793 1.8244869819280736 0.0072167218333695 )
( 16.838933145938 2.0009961073847227 -0.0195806391197598 )
( 16.77979926922304 2.182528392499336 -0.0422413768163165 )
( 16.716759134052708 2.313480039231423 -0.0538347809208025 )
( 16.657904022417828 2.4366945771037454 -0.060537086985688 )
( 16.594811283618473 2.561676179395264 -0.0637290802475794 )
( 16.5254020246273 2.683691958648385 -0.0645707575198654 )
( 16.460508265164837 2.8063368848004213 -0.0633404521924674 )
( 16.39627623724775 2.935079516100203 -0.060663277244823 )
( 16.32562770058722 3.06776815552809 -0.0568359892202323 )
( 16.2595448160626 3.204404553949277 -0.0530662468389006 )
( 16.1977018252099 3.340833217725095 -0.0500232705934276 )
( 16.136412559174012 3.4704287447215982 -0.0485696365039935 )
( 16.07977692287292 3.5821668729189327 -0.0489755140070604 )
( 16.02932039138621 3.679270464849653 -0.0502592814732294 )
( 15.982219151349192 3.768229097555136 -0.0526878461786965 )
( 15.933206164611509 3.858998361537525 -0.0563633422217374 )
( 15.888425454768957 3.96210980481917 -0.0606728783598195 )
( 16.81588026981723 1.7420305708226085 0.0115517357049411 )
( 16.74276865373311 1.8447745348582067 -0.0085546123388158 )
( 16.66253634117774 2.027560548698482 -0.0348717063596942 )
( 16.571137725607567 2.2043778030407712 -0.0547247985826208 )
( 16.478674937937807 2.333599365640101 -0.0639307857563919 )
( 16.387965480945436 2.455611376241609 -0.0687903988265944 )
( 16.290397025281464 2.580535347093661 -0.0699677719308826 )
( 16.191358576046625 2.704009079665124 -0.0690305176784792 )
( 16.098261102665685 2.826278062916128 -0.0676030945427314 )
( 16.004448541658572 2.955902128585493 -0.0662114250316872 )
( 15.907082087687234 3.0976083798135043 -0.064816390576643 )
( 15.81545358483818 3.243175635129314 -0.0642873261631447 )
( 15.728717059557514 3.3847268302038223 -0.065652724309084 )
( 15.643507351253607 3.517510278105449 -0.0692409066037567 )
( 15.56299050403259 3.627411440237085 -0.0742524365001465 )
( 15.48746265662097 3.727883066189315 -0.0791755911749813 )
( 15.41752288564258 3.8254601899600544 -0.0843116465444199 )
( 15.349450468729128 3.9246123177127146 -0.0900152059066957 )
( 15.282457605289837 4.038544529219553 -0.09598119433516 )
( 16.68486458538234 1.7395867130701697 -0.002558387960674 )
( 16.59154429892479 1.85043966025644 -0.0239216454292495 )
( 16.479722247384398 2.038895800832529 -0.0485432825965259 )
( 16.35928739982587 2.208533553996672 -0.0648356722246628 )
( 16.242229005455258 2.332202499311256 -0.0713747200102527 )
( 16.126349066336644 2.4516516398707995 -0.0745286184143836 )
( 16.006252132102457 2.572224969019711 -0.0756469761864586 )
( 15.882460493905452 2.692868664050543 -0.0756631180314872 )
( 15.756988255605778 2.815047417909385 -0.0764573934660917 )
( 15.631805145816312 2.9524658691426806 -0.0778201595709212 )
( 15.5120158302467 3.1002354882924488 -0.0797560385454075 )
( 15.393574237892445 3.249273738792476 -0.0836006622549986 )
( 15.282693068197847 3.396643401057218 -0.0888557281457014 )
( 15.17867544290842 3.532217247064101 -0.0950553766811673 )
( 15.077298105338537 3.646477446174396 -0.1017863400852407 )
( 14.985776484015028 3.748988299444151 -0.1076458730362352 )
( 14.897563873134352 3.849899550603188 -0.1129982744865205 )
( 14.810483644385757 3.953972712526509 -0.1179774311728139 )
( 14.7248946952268 4.074401520470911 -0.1221979747951429 )
( 16.54783103972289 1.727570679307141 -0.0163471667435857 )
( 16.434184780625007 1.8445727809568164 -0.0378200355307731 )
( 16.29681740808717 2.032369273684204 -0.0600840513562937 )
( 16.152060636005917 2.1916890391642583 -0.0732350702866948 )
( 16.013255311049793 2.308911075329736 -0.0789252063234494 )
( 15.872795222858894 2.422438801289894 -0.0821121182458517 )
( 15.729607522735115 2.5404952835655945 -0.0840999200302522 )
( 15.584187518831412 2.661368590117327 -0.0863905750650419 )
( 15.433798109081517 2.784017189028462 -0.0898543343032403 )
( 15.290263417309186 2.925597225950888 -0.0936560092118136 )
( 15.149213989916069 3.078691053647658 -0.0983588126786707 )
( 15.00586175650769 3.234034905673008 -0.1046894011084651 )
( 14.874780389751685 3.383505643722681 -0.1109765133884127 )
( 14.75228404750793 3.5190692080260657 -0.116954300209399 )
( 14.632351491300732 3.639740422664552 -0.122624922698037 )
( 14.52197853921185 3.742618381670228 -0.1267601723568684 )
( 14.41662020269002 3.843534663740515 -0.1298396810585547 )
( 14.310006907714357 3.9544331651161833 -0.1323964948636561 )
( 14.204860612178845 4.080524874050152 -0.1340808148512538 )
( 16.415717539376914 1.7082066176965989 -0.0295815028032801 )
( 16.282421203084482 1.8239166791950536 -0.0500796806234241 )
( 16.122474080113662 2.0052084106804324 -0.0704838956343901 )
( 15.95726798629092 2.1547877046282857 -0.0818559459504747 )
( 15.79682649164115 2.2671033866091386 -0.0876511408891591 )
( 15.633876622832725 2.379197069462778 -0.0915865048027186 )
( 15.468675560825607 2.496510267127694 -0.0947875308215694 )
( 15.305568100355178 2.613906671501274 -0.0991694332316611 )
( 15.134919846840733 2.737426944184875 -0.1048090921436272 )
( 14.97206584409462 2.8851885405181283 -0.1102006603163528 )
( 14.808582718213774 3.043672570861553 -0.1158940133257258 )
( 14.646846088571415 3.205413505820121 -0.1217060311905825 )
( 14.496453463596044 3.3578958876893616 -0.1269851964778323 )
( 14.351126330032 3.4895556519345097 -0.1314093406118508 )
( 14.217792064882298 3.605813223740468 -0.1345878525650367 )
( 14.088973783971046 3.7106760335302975 -0.136571385475869 )
( 13.963825264169236 3.816952529122114 -0.1374239946808331 )
( 13.83905430583957 3.9355814388824135 -0.1373062171282267 )
( 13.71556041061594 4.068333812301695 -0.136390071402279 )
( 16.289677726763752 1.6750465135582573 -0.0415024200835587 )
( 16.136751176892062 1.78367289196352 -0.0614360187011808 )
( 15.955445664727511 1.9589312318091112 -0.0803011678490201 )
( 15.77360405343506 2.10091477816122 -0.0909448591061015 )
( 15.59256459447821 2.211983386933451 -0.0970839809065552 )
( 15.41366304146495 2.321310066443854 -0.1019909887870852 )
( 15.233240662255588 2.434062809653929 -0.1064675713509055 )
( 15.053735378772362 2.55584782077435 -0.1116880643567882 )
( 14.868022467715685 2.6860994741187185 -0.1178558750398486 )
( 14.67734958160862 2.833563781293936 -0.124029315873557 )
( 14.49212267782761 2.9962603260487564 -0.1289905602052995 )
( 14.316110397072466 3.16057238990856 -0.1327635702715783 )
( 14.1425118038732 3.3141092754230668 -0.136336211699295 )
( 13.977480578797374 3.446248666908092 -0.1386881734464788 )
( 13.830403599109108 3.559705459651316 -0.1395397734056327 )
( 13.683352954180489 3.667931006888412 -0.1398306685546322 )
( 13.537537272211022 3.777368208116024 -0.1387785149224248 )
( 13.392409528276438 3.899222652852638 -0.1361498816295008 )
( 13.246132021332397 4.0379223872823 -0.1325086987953755 )
( 16.16467926682647 1.6359881382437993 -0.0528644382182957 )
( 15.995104731746668 1.7440112442759057 -0.0727933212437948 )
( 15.796500196458288 1.911441607565089 -0.0899888754924761 )
( 15.59945409489642 2.0412073502997337 -0.0999908126984889 )
( 15.403919628371115 2.150987766696733 -0.1067599139538155 )
( 15.212006896582494 2.2536950271962937 -0.1125978127592685 )
( 15.014430678366807 2.359667626480954 -0.1176842278243038 )
( 14.81263338792514 2.482760981988035 -0.1230919312289518 )
( 14.613686117592817 2.615340404704693 -0.1282032282643362 )
( 14.406751530422635 2.765805677740844 -0.1328871195267994 )
( 14.202825632877056 2.935929265007789 -0.1368391041952225 )
( 14.00839339968308 3.1049115435696333 -0.1393623703056434 )
( 13.817258190578247 3.255854890894329 -0.1408280614023409 )
( 13.63800423089829 3.389076561269189 -0.14110392080116 )
( 13.469596127042845 3.503627604648737 -0.1402350192216447 )
( 13.300311913136518 3.610902600162465 -0.1382888884323022 )
( 13.129717972658336 3.720680065231917 -0.1350347034724106 )
( 12.961097411147083 3.843841621162104 -0.1310288978557224 )
( 12.792779084342868 3.989053063310089 -0.1269274981483372 )
( 16.049312940908028 1.5942302737832488 -0.0640545678633215 )
( 15.86802817329946 1.701932910982206 -0.0829607235071987 )
( 15.648699802836909 1.8592290493116028 -0.098945090378961 )
( 15.441423540441113 1.9765327642629955 -0.1087766365872281 )
( 15.234895594336765 2.0796887923332825 -0.1158334470266723 )
( 15.02588994968466 2.1785670719504315 -0.1219497304788517 )
( 14.81301803995698 2.2793379771194235 -0.1275071928010831 )
( 14.597507355194942 2.3969476617216845 -0.132416150820697 )
( 14.381113755642124 2.5351168353282763 -0.1357098503286229 )
( 14.160964676312036 2.691225191935282 -0.1383399102542261 )
( 13.93912204357477 2.86304503453795 -0.1406706168178566 )
( 13.719828918093512 3.038255252384318 -0.1416473438265141 )
( 13.515550476196427 3.1881710351569104 -0.1413742477071396 )
( 13.320820036787582 3.321232948632334 -0.1399456613115362 )
( 13.125883553789652 3.436792717295879 -0.1375099227740327 )
( 12.93007945708523 3.54182564633987 -0.134095969430885 )
( 12.735680676069034 3.652749830054015 -0.1306278984870003 )
( 12.547640416471667 3.779699482349791 -0.1274580405191001 )
( 12.35689570470611 3.9325744560418414 -0.1239652640573065 )
( 15.939355823747777 1.5456210848449496 -0.0751021386401638 )
( 15.744885395263031 1.6509745501704511 -0.0926508706089085 )
( 15.509186496539444 1.8004468243225349 -0.1078182769907437 )
( 15.293427542134532 1.905470942692792 -0.1174963324703817 )
( 15.075460957041008 1.998075126679769 -0.1242026094513475 )
( 14.851656293412734 2.094929171274981 -0.1300005480168578 )
( 14.630482739309432 2.20135305856157 -0.1351481116534945 )
( 14.402424739053576 2.320845443362069 -0.1386064863368569 )
( 14.16918558209912 2.4615896435072253 -0.1401124018399761 )
( 13.931809657746712 2.617559028073245 -0.1413024967181815 )
( 13.69241466492694 2.7862672890743423 -0.1417865581040637 )
( 13.453331415691846 2.9574946904523083 -0.140969798804482 )
( 13.226592812001506 3.1107229780386185 -0.1395095385872283 )
( 13.008180474580609 3.2494163284614768 -0.1372179434440134 )
( 12.788139926204517 3.3639135666006075 -0.1341668994774346 )
( 12.57273059783195 3.464719183907069 -0.1310230702316166 )
( 12.362136856153809 3.5766420046636407 -0.1284403057772174 )
( 12.153630313228746 3.713204343197028 -0.1255238283513648 )
( 11.939761179303696 3.876263605776463 -0.1203463129602219 )
( 15.834700629217677 1.4859463985451389 -0.0854781819940692 )
( 15.62896145518474 1.5885083136312228 -0.1023583094121974 )
( 15.385326248803104 1.7329449699614925 -0.1167020028224083 )
( 15.156590847833089 1.8328040990626235 -0.1257586315223618 )
( 14.929138049694693 1.924773305422358 -0.1317014914769823 )
( 14.696417778122868 2.0209208674250463 -0.135974102183387 )
( 14.464102086122942 2.127403069110866 -0.1395526428090041 )
( 14.21997863193106 2.2445838382222423 -0.1414364321217264 )
( 13.969752495133884 2.3804858654393377 -0.1422938380300852 )
( 13.718189093165602 2.539565929637563 -0.1424995555884073 )
( 13.458446390776643 2.7135958575709727 -0.1414094206028121 )
( 13.200749863784944 2.8809875847137705 -0.1398133542691376 )
( 12.948299733848067 3.033162296760375 -0.1372299891473424 )
( 12.700573835877076 3.1698733524867784 -0.1345898725683247 )
( 12.464658287008175 3.277635956529943 -0.1324105583612211 )
( 12.23806936352852 3.3793335302846463 -0.1296262734885598 )
( 12.00865197074017 3.4969929283051084 -0.1259701027159037 )
( 11.774485745681266 3.6402865161760745 -0.120908678136576 )
( 11.530221182624844 3.818378617887634 -0.1124567741125466 )
( 15.739930728875338 1.4168039181758607 -0.0953057500525825 )
( 15.529244292354791 1.5177970959219822 -0.1110961655727629 )
( 15.27439936988702 1.659061677543472 -0.1241241190099485 )
( 15.0339908327603 1.7566386869506343 -0.1320640217980559 )
( 14.796788165275132 1.848088212269863 -0.1370227699295463 )
( 14.558495544029562 1.9404121945842248 -0.1400005847650084 )
( 14.313737360357148 2.043875442490863 -0.1418962019822096 )
( 14.060446619856425 2.160506839244201 -0.142455311115169 )
( 13.793366322341882 2.29352655746792 -0.1424387283507443 )
( 13.520722090957625 2.4528640543247384 -0.1417285439662043 )
( 13.239429756618074 2.629624234464847 -0.1400336907609499 )
( 12.95651070050523 2.801662991093753 -0.138252444329792 )
( 12.682167359811384 2.954942156498761 -0.1354380763103979 )
( 12.41818387222298 3.081489943349916 -0.1329428459776863 )
( 12.166655450362416 3.1843728310061974 -0.1309050083867803 )
( 11.918184840955188 3.2931644860905536 -0.1269690450502554 )
( 11.664840106010748 3.422996166335418 -0.1213421309517811 )
( 11.400297702225066 3.5690227466528874 -0.1134736317481265 )
( 11.116314131321438 3.7536574032968657 -0.1025369763042283 )
( 15.654790631651643 1.3484179277794537 -0.104182578321732 )
( 15.434700465870158 1.4486578133044186 -0.118119631967363 )
( 15.16010701319574 1.5868077324729937 -0.1301557224513692 )
( 14.914204289739985 1.676023815674699 -0.1364356716575423 )
( 14.673494388052085 1.762648276326445 -0.1406016793334019 )
( 14.429834460260766 1.8536982289661847 -0.1428984553378522 )
( 14.173098074206065 1.954361850508328 -0.1432456374434445 )
( 13.904779279686174 2.0722324904171407 -0.1426231544882095 )
( 13.625635605001312 2.204549351915332 -0.1416148599849859 )
( 13.334370514387796 2.3590382968637558 -0.1404468110688436 )
( 13.028220678875453 2.536561421068164 -0.1389034336645287 )
( 12.719288915360908 2.7086411754593462 -0.1365595842400243 )
( 12.422194184477217 2.863079335428784 -0.1337842006687842 )
( 12.147008372096256 2.985752126549547 -0.1313473474893821 )
( 11.881152371468522 3.088471494572533 -0.1276869921816215 )
( 11.609487251315478 3.2019022244501847 -0.1222365127939583 )
( 11.32427805850463 3.337567657572798 -0.1149916692156234 )
( 11.021861714826429 3.496150089268445 -0.1051853721718066 )
( 10.70948183013592 3.700472764961978 -0.0938301812871074 )
( 15.576055506830684 1.282720353158159 -0.1116003513549386 )
( 15.346930190680988 1.38006099870974 -0.1239487616163387 )
( 15.060354681984318 1.5122606989599592 -0.1345157045538048 )
( 14.80865849704494 1.592247207489973 -0.1394267640893291 )
( 14.563737843328724 1.671421404420618 -0.1426244799766708 )
( 14.311644820688736 1.7676307501532331 -0.1440028492818851 )
( 14.044397800459096 1.86385190670545 -0.1434460136940758 )
( 13.758845266258604 1.9744533033152405 -0.1417895905107046 )
( 13.463188521345248 2.110300979008782 -0.1402795091501754 )
( 13.154077472865817 2.2613017127736126 -0.1392585943426296 )
( 12.81962234263313 2.4420324559288447 -0.1377152655162093 )
( 12.483572677324002 2.617611919760422 -0.1346737212552145 )
( 12.175420298369604 2.763755683311768 -0.1315733602532652 )
( 11.892117395347386 2.8827703462279914 -0.1280390911293108 )
( 11.608640208997056 2.9901477582216653 -0.1227907147159591 )
( 11.310422753996926 3.1079349330990635 -0.116484260818455 )
( 10.989074787483643 3.24735495632719 -0.1070078742438753 )
( 10.650150975043738 3.423574133827537 -0.0973761691895168 )
( 10.332246407969777 3.668529583506333 -0.0884208947543931 )
( 15.505201117916888 1.217315933756418 -0.1165750788605128 )
( 15.264594517525856 1.3076339827872383 -0.1286336873713293 )
( 14.971531870953807 1.4371209511680134 -0.1375858420398525 )
( 14.719236162575324 1.513657873300361 -0.1412580667135592 )
( 14.466478783640971 1.588769685053894 -0.1430276782325475 )
( 14.19993638774324 1.681218200484539 -0.1430308116568468 )
( 13.920727906958035 1.7704077866174557 -0.141758194360607 )
( 13.628850078111926 1.8794217824534796 -0.140016588157318 )
( 13.314817746025236 2.0165396613279407 -0.1388312597087391 )
( 12.981250711716855 2.160850044347113 -0.1378374917226676 )
( 12.633898333483984 2.336225123266769 -0.1358375232754374 )
( 12.278003968138258 2.5232957736277317 -0.132397693648584 )
( 11.955670934853837 2.666508682019573 -0.1283541207913227 )
( 11.655019700503187 2.777959293256392 -0.1234467840781864 )
( 11.343566495184108 2.889749380663816 -0.1179830866275989 )
( 11.008571742892402 3.0080542623284168 -0.1106624595202798 )
( 10.65589993197356 3.1579763427608176 -0.1013340631402692 )
( 10.305555607629302 3.360219470814908 -0.0940569992428464 )
( 10.001837061694404 3.6547755770032175 -0.0859394450716303 )
( 15.43739395205893 1.150955566485894 -0.120646887984622 )
( 15.18934233498632 1.2348600094781423 -0.1314367138132762 )
( 14.89042024510701 1.3576376126566332 -0.139047892638157 )
( 14.638372015563125 1.4311178681087684 -0.1415990767318517 )
( 14.378679020635076 1.5084841001455611 -0.1420755201270394 )
( 14.098953599610455 1.5961909010056152 -0.1413937277391176 )
( 13.811589585502452 1.6749644846911318 -0.139718724799484 )
( 13.507362109018436 1.7852948521423555 -0.1380284372341439 )
( 13.173446287883529 1.9241895679735024 -0.1373344465257221 )
( 12.820756063147568 2.069711976007924 -0.135798027303424 )
( 12.453576159014764 2.2344962071625885 -0.1328611660613611 )
( 12.082914251008868 2.406715198185535 -0.1288984525736167 )
( 11.745518245722344 2.552368794005464 -0.1243156093434579 )
( 11.41844886402216 2.6701901180300007 -0.1188923627125723 )
( 11.077281704227731 2.7760335190781658 -0.1132490492408975 )
( 10.715110129609345 2.897407707738862 -0.1064071972776034 )
( 10.340065908463238 3.06199389296592 -0.0988719669257681 )
( 9.99749349911571 3.3061168472975884 -0.0931735465175544 )
( 9.686989026943875 3.660523145379602 -0.0847786736870056 )
( 15.376856598672754 1.082064054848429 -0.1242157607810956 )
( 15.123938993505584 1.1598587629667554 -0.1332453931118751 )
( 14.816636973314164 1.2719773237926526 -0.1394633946303397 )
( 14.563207765740916 1.3461885689516773 -0.1408665668387971 )
( 14.295963896517412 1.421348547163256 -0.1401921502267232 )
( 14.003655462633931 1.506716624042769 -0.1394550598338455 )
( 13.715430749995198 1.586472992138189 -0.1380065809616441 )
( 13.397194043479534 1.6871209205272075 -0.136008487484826 )
( 13.041183241674275 1.823301146652735 -0.1353265727584146 )
( 12.667039460731976 1.973548875007336 -0.1332881707963361 )
( 12.273819360166822 2.136724244080338 -0.1296210385804331 )
( 11.89647091311489 2.294994572652759 -0.1259433735504316 )
( 11.538745258410376 2.4317701674049785 -0.1215053920995334 )
( 11.181306982497956 2.5523676126729336 -0.1151196424716271 )
( 10.820941303158303 2.662258134398769 -0.1083562614259554 )
( 10.44086830386416 2.79623974714272 -0.1019773928743324 )
( 10.052824747587932 2.983457630224544 -0.0965093772367212 )
( 9.708383344668158 3.2656813099311863 -0.0918566505668656 )
( 9.306101967511909 3.632057915047878 -0.0850190943958494 )
( 15.3268007222429 1.0124995715554377 -0.1259753478293906 )
( 15.06365173159164 1.0801913403632264 -0.1335141820064826 )
( 14.749563219126562 1.185899564984572 -0.1387510348948654 )
( 14.491867809524535 1.2597866143925638 -0.1393631503307311 )
( 14.21807567462681 1.3343146809564097 -0.1380521462325191 )
( 13.916335319213331 1.421585543687698 -0.1368881390123736 )
( 13.616390169003964 1.4994294834514914 -0.1352472749410059 )
( 13.2914440536115 1.5906075665037889 -0.1334231151945845 )
( 12.923749617362027 1.7179928641258435 -0.1326026554456784 )
( 12.527355356533857 1.8613311019266736 -0.1304829220724203 )
( 12.113573771131502 2.028350291576926 -0.1269569181164831 )
( 11.72213000560068 2.1897082774840926 -0.1237727453945069 )
( 11.339676520996209 2.317301139847684 -0.1191926483105786 )
( 10.960220243513993 2.42974433796847 -0.1125566550408497 )
( 10.572647716161038 2.555844547165453 -0.1044399521637919 )
( 10.175900337786295 2.703338235732649 -0.0972530513509254 )
( 9.78888271727397 2.914403610850256 -0.0941450856214205 )
( 9.38659152912921 3.226276468319567 -0.0896189926135929 )
( 8.815445580089117 3.539596624287201 -0.0841487826559857 )
( 15.278799231695183 0.9380762330072472 -0.1265735795554157 )
( 15.011590523812457 1.0043523705735744 -0.1326327437878123 )
( 14.695624975710263 1.103952631889337 -0.1365110634905383 )
( 14.428878611318932 1.1680758775657534 -0.1364084619860281 )
( 14.148448843746394 1.2439994430843968 -0.1351340504585124 )
( 13.84057747017683 1.3355448630506546 -0.1338401188021684 )
( 13.526656240299523 1.4070471132222937 -0.1318212899182826 )
( 13.1956692098957 1.4909116738834576 -0.1306875111984512 )
( 12.808860490561631 1.6148177751387316 -0.1295782698172612 )
( 12.394564852300798 1.7547201737071776 -0.1272274138445819 )
( 11.965009632757576 1.9157369176622403 -0.1246213703851196 )
( 11.54511417119953 2.075413320284432 -0.1209482959293752 )
( 11.149023326152964 2.207430332731139 -0.1157171565462419 )
( 10.762365195799651 2.3176256500200605 -0.1097999788486963 )
( 10.348739791378131 2.4497754655701365 -0.1029817668608472 )
( 9.926754859292348 2.6112404792261845 -0.0981065071471158 )
( 9.531714795770243 2.842714903359864 -0.0938454897001483 )
( 9.036457085061343 3.1625126407881026 -0.0888298305709387 )
( 8.20590641786263 3.365381110585333 -0.0830777904147796 )
( 15.232970435653035 0.8625903929816208 -0.1261407627079841 )
( 14.96541226643456 0.9303177639251556 -0.1309544175362811 )
( 14.646261527528766 1.0272734643131196 -0.1336617522142155 )
( 14.375165806469983 1.0871555651966556 -0.133209791204849 )
( 14.085118588096634 1.158563041578614 -0.1319654625776898 )
( 13.763852834728612 1.2381036793414653 -0.13012945379819 )
( 13.440075430858863 1.3077256278268798 -0.128184847202478 )
( 13.102722902431005 1.3879680249571236 -0.1276406135119785 )
( 12.690323986551055 1.5080709179384866 -0.1264720922016427 )
( 12.258127954454228 1.6517229455738236 -0.1243717405444333 )
( 11.824902427669194 1.805230971762372 -0.1223313644905242 )
( 11.392584368678593 1.963729976307484 -0.1177090206190114 )
( 10.980261710031565 2.102038978775392 -0.1122345793145621 )
( 10.566766210148266 2.2092827188314086 -0.1064203750610088 )
( 10.14094456337743 2.337629098458281 -0.1009761388846463 )
( 9.704964261770172 2.512336240872767 -0.0982146637697475 )
( 9.251260255598453 2.76679136328341 -0.0943323141847163 )
( 8.68443267954499 3.082185686994314 -0.0917254243918973 )
( 7.431550493462391 3.0754962310844505 -0.080975172268681 )
( 15.190802475244633 0.79510936146097 -0.1247108212080639 )
( 14.91947948650666 0.8576800606561946 -0.1288712370342426 )
( 14.59832727649044 0.9505647459255504 -0.13095304909537 )
( 14.326820437682027 1.0106092269220126 -0.1301775096825282 )
( 14.026892924456469 1.0747833579916288 -0.1281353886691362 )
( 13.698997136351416 1.1430746481445755 -0.1261561416096204 )
( 13.366158205188016 1.2165758147865378 -0.1256439889792461 )
( 13.010597807025102 1.301025443423275 -0.1251874892899326 )
( 12.579055800092371 1.409793049016242 -0.123718561430282 )
( 12.12495422316402 1.5497949594437754 -0.1219936449089407 )
( 11.684740976345584 1.6956764988621742 -0.1191549459025915 )
( 11.252720336456166 1.8391221942418 -0.1148814301663872 )
( 10.823984539267844 1.9725606638792383 -0.1101258259282411 )
( 10.382208493443182 2.086923562886112 -0.1038020457892911 )
( 9.935696407952214 2.2180214884350504 -0.0969447358818809 )
( 9.48306648555752 2.403797492925701 -0.0934686587463765 )
( 8.951822380847917 2.67152578839383 -0.0918501563313157 )
( 8.183777827903647 2.913502369733457 -0.0883524233679063 )
( 6.670970397415407 2.748026366609449 -0.0743920049867402 )
( 15.156176969857432 0.7261420201419926 -0.1222667881553447 )
( 14.880360979979269 0.7866381125326164 -0.1260115897165666 )
( 14.55236737996868 0.875235814066224 -0.1277931948025576 )
( 14.27838271985346 0.9290009245275485 -0.1265335734512161 )
( 13.97257246212087 0.992822131387686 -0.1238380016582972 )
( 13.644417296083272 1.064113275434992 -0.1225955474114544 )
( 13.30789354411266 1.1359706441745194 -0.1236397844517459 )
( 12.930075457575075 1.2144045491988973 -0.1231336148715463 )
( 12.48680462655646 1.3180820972825331 -0.1216434483778608 )
( 12.023953490717211 1.4522736273719254 -0.1201627612324154 )
( 11.56542006312984 1.5915678756628435 -0.1169974821391276 )
( 11.109586012224712 1.718831236284438 -0.1126518817248145 )
( 10.6616135392445 1.838692257977414 -0.108665311269421 )
( 10.203612986241067 1.9550887178528624 -0.1038299117375861 )
( 9.74096698503648 2.0970526919461987 -0.0972881089369517 )
( 9.253020180956348 2.3072417999039314 -0.0941497171648822 )
( 8.659317271289483 2.5676980243441365 -0.0905788267475389 )
( 7.630943496591037 2.674211702088404 -0.0818661522942457 )
( 6.011086271153183 2.433124986401687 -0.0688424169908373 )
( 15.127561621270988 0.6543621365882758 -0.1194453187891824 )
( 14.851526304912063 0.7154832598897899 -0.1222696596679583 )
( 14.514838806839304 0.8019057455331419 -0.1237055400488354 )
( 14.233287383312952 0.8496439166708618 -0.1222214897831546 )
( 13.9209914634358 0.9088256638842972 -0.1200170595059706 )
( 13.58887482048805 0.9788563811362176 -0.1196391124017765 )
( 13.246483997743564 1.038215372188769 -0.1205139544395745 )
( 12.85634791032573 1.1131150028655947 -0.1201684579716292 )
( 12.411397610552216 1.2259226923210786 -0.1193452382069418 )
( 11.94113852975756 1.3542870923571089 -0.1184879829850084 )
( 11.459077479588313 1.489965683652578 -0.1162855621114282 )
( 10.979399751507083 1.6038737030438126 -0.1111447319234887 )
( 10.513070573160542 1.71172721871505 -0.1077118845605715 )
( 10.028387696649752 1.827009762165856 -0.1042722554966153 )
( 9.549701216567462 1.9745804269365623 -0.0995992109262414 )
( 9.006679651778944 2.1975794369572914 -0.0976934145050007 )
( 8.332943759161443 2.4305815585702057 -0.0925184619620407 )
( 7.161968623341862 2.4349037132991103 -0.0789672280967627 )
( 5.398298033094317 2.1123518324207984 -0.0628340348176487 )
( 15.102354751168573 0.5923155529057729 -0.1167770965385736 )
( 14.824811638522553 0.6482331454246028 -0.1188364800613753 )