/*--------------------------------*- C++ -*----------------------------------*\
| =========                 |                                                 |
| \\      /  F ield         | OpenFOAM: The Open Source CFD Toolbox           |
|  \\    /   O peration     | Version:  2112                                  |
|   \\  /    A nd           | Website:  www.openfoam.com                      |
|    \\/     M anipulation  |                                                 |
\*---------------------------------------------------------------------------*/
FoamFile
{
    version     2.0;
    format      ascii;
    arch        "LSB;label=32;scalar=64";
    class       volSymmTensorField;
    location    "0.0039";
    object      tauij_LES;
}
// * * * * * * * * * * * * * * * * * * * * * * * * * * * * * * * * * * * * * // 
 
dimensions      [0 2 -2 0 0 0 0];
 
internalField   nonuniform List<symmTensor> 
13597
(
( 0.1876966123312927 0.0416336138611379 -0.0070992737961445 0.0929855079713663 -0.0405136838049457 0.1193937590184537 )
( 0.1889310495517555 0.0442867893054007 -0.0076547788690743 0.0928296499688362 -0.0389699274360244 0.1217978590342862 )
( 0.1922826340910038 0.049710504294808 -0.0089769159778917 0.0930406979592585 -0.0359161276836515 0.1298969871900112 )
( 0.1971738727924674 0.0578741594115209 -0.009547314627063 0.0945375047562196 -0.0312863239129687 0.1450986168237975 )
( 0.2021279992321322 0.065348887314722 -0.0089507609679073 0.096554882803413 -0.0262706041242071 0.1601591568557845 )
( 0.2076091438172566 0.0714094530119071 -0.0077657375289359 0.0988894211038581 -0.0214502049377024 0.1717940375253139 )
( 0.2133630294759502 0.0777294179580424 -0.0066482734093906 0.1017267059150075 -0.0169484644861194 0.1828246221864656 )
( 0.2193485686126443 0.0838300530756818 -0.0055657269188148 0.1051354829041942 -0.0125942867636241 0.1926753985557945 )
( 0.2259292684558926 0.0893597063647477 -0.0039578965723472 0.1087372639973018 -0.0085548080921641 0.2011843944833515 )
( 0.2328569874466521 0.0944943672715909 -0.0025181559593393 0.1124503632221855 -0.0051310006868103 0.2078551365068805 )
( 0.2409473730730895 0.0991085907394093 -0.0013408795275904 0.1167699008922096 -0.0016973612679898 0.212671768045478 )
( 0.2498122638876472 0.1033320821569264 0.0001955164954007 0.1211998115633789 0.0014475824079586 0.215909723944143 )
( 0.2585204408121201 0.1071669472592976 0.0018244240572097 0.1250230095865434 0.0035429060252705 0.2170375263193387 )
( 0.2672162683427943 0.1101081914135917 0.0029337983171828 0.1290480844815433 0.0056114629604121 0.2162417973011422 )
( 0.2763911493634765 0.1126703736529959 0.003132878750876 0.1335972749528328 0.0075868286599839 0.2129934385676554 )
( 0.2849203028784988 0.1150475649380228 0.0034785085856732 0.1374742612478188 0.0094149364863646 0.2095279078331836 )
( 0.2927856534914232 0.1163984713117157 0.0046815212831046 0.1405588162355784 0.0112852720723482 0.2067929731809659 )
( 0.3005190629660161 0.1173362293562305 0.0053542596174107 0.1435898930109825 0.0132638107990766 0.2030193740889966 )
( 0.3082070458633605 0.1188699687756213 0.0060790991484477 0.1468795603259063 0.0153363606672455 0.1990105696841665 )
( 0.1833041842059465 0.0490108749809291 -0.0020431218344555 0.0965249731237554 -0.0310426496330961 0.1123150260554791 )
( 0.1848483006544468 0.0544660484478671 -0.002636780341555 0.0991077304859926 -0.0280726582295999 0.1153842313839374 )
( 0.1912481483204968 0.0647048765710322 -0.0031739944080234 0.1041250322810473 -0.0230293210422553 0.1263945563318702 )
( 0.2015347477919441 0.0777086819250853 -0.0023876143876521 0.1118682651007482 -0.0164015708344712 0.14477187071214 )
( 0.2105615810663633 0.0883557424509627 -0.0019352085308513 0.1181641717666956 -0.0110700453115839 0.1588808667652483 )
( 0.2191393973821362 0.0974911839246948 -0.0017898544603904 0.1235547152830647 -0.0068686758517695 0.1709269995540775 )
( 0.2283954710748043 0.1061770113137735 -0.0016526996421021 0.129196186636283 -0.0036240975758733 0.1817665111459797 )
( 0.2378346883318596 0.1144054866703735 -0.0021418405683461 0.1351632813402785 -0.0011986147806753 0.1910007705415401 )
( 0.2470770351171377 0.1214075424213677 -0.0024977313186278 0.1403497367678897 0.0006936952462242 0.1993615722329342 )
( 0.2562828918894301 0.1273498377061862 -0.0024151013326888 0.14509767675255 0.0016854133357658 0.2055481290477892 )
( 0.2664204875083913 0.1323599129987144 -0.0028533917127957 0.1496693283156883 0.002047469082399 0.2096741117101037 )
( 0.2766194329776847 0.1360472688331169 -0.0033505823855577 0.1533998365167009 0.0022114360384029 0.2121262778681582 )
( 0.2859919637592834 0.1386588658111534 -0.0035677957793234 0.1567544528813167 0.0016538227356638 0.2126736711369831 )
( 0.2947935463402614 0.1403691012584788 -0.0027098526147263 0.1597245141026588 0.0013541892009223 0.2117401728243164 )
( 0.3026589487527489 0.1408539777936412 -0.0010106349495987 0.1619607002233865 0.001740108163428 0.2098604510970762 )
( 0.3090312015955332 0.1406672480579189 0.000393184121679 0.163623722874065 0.0017909259598606 0.2078901515488615 )
( 0.3135589537246193 0.1397764099642008 0.0023382780367223 0.1643869188782561 0.0019301727377476 0.2062548267745344 )
( 0.3172324230227037 0.1380368638152439 0.0047588360497622 0.1650633538970771 0.002496491422042 0.2040539323629283 )
( 0.3203795460430563 0.1363265216520551 0.0072395003457924 0.1658181933934056 0.0032084067442709 0.2020772008910884 )
( 0.177403413699138 0.0596287648090067 0.0002989488020291 0.1019469962806889 -0.0218445610995447 0.1128421309349157 )
( 0.1803019396966248 0.0679367657352813 8.249406860761473e-05 0.1075031112780917 -0.0177400102687411 0.118292277595746 )
( 0.1905260140943499 0.082076078439573 0.0002844840843859 0.1176662200370161 -0.0117734171581599 0.1326158315577595 )
( 0.2044511710145791 0.0980959635948313 0.0007018472414023 0.1300324947266312 -0.0048424654367123 0.1532008675757197 )
( 0.2153019751473596 0.1100871674024268 -0.0003961814216167 0.1393423318009803 -0.0004786837733467 0.1670661971432903 )
( 0.225662140058004 0.1203731269332541 -0.0018676478907075 0.1471054743500623 0.0020202650349179 0.178827185239515 )
( 0.2357765129309306 0.128971445755458 -0.0032278982591835 0.1537490414506157 0.0032919997666673 0.188902738998156 )
( 0.2450125618306637 0.1357219771468539 -0.0047364182410183 0.1595171457955752 0.0039348600595909 0.1975651566583943 )
( 0.2540416071291155 0.1405544293080461 -0.0057123573921882 0.1637968058370376 0.0039975326407874 0.2047949542734957 )
( 0.2629653149848532 0.1441034148848522 -0.0054367972782801 0.1667563995136772 0.0032336182363804 0.2093562222355784 )
( 0.2702764040810259 0.1461007920846934 -0.0043863699339521 0.1686174938673594 0.002354511923134 0.2119925951621367 )
( 0.2771916986414035 0.1459957588271524 -0.0026131831428645 0.1690630191201876 0.0018144654404801 0.2137529254029417 )
( 0.2832964108802344 0.1442362340959683 9.2496234679838e-05 0.1686043935844552 0.0012423949297142 0.214675134695677 )
( 0.2872820461487259 0.1414166424644612 0.0041497725476595 0.1673472120419247 0.0008855549723876 0.2145838038104338 )
( 0.2897193759872801 0.1379022646716146 0.0094803039563875 0.1652284911541417 0.0011595705877381 0.2145247207687462 )
( 0.2908884735164461 0.1341262655575794 0.0137496083794864 0.1628901611308936 0.0014725755718828 0.2142075478081987 )
( 0.2903350489777149 0.1302350783218613 0.0176715754310194 0.1603971138415599 0.0018416363933127 0.2132534750722308 )
( 0.2885551698581526 0.1258778440918168 0.0221074021695499 0.1576199325721773 0.002687709797153 0.2120580150517807 )
( 0.2864038250429867 0.1212301223573298 0.0260750999361409 0.154462021458843 0.0034422435980701 0.2105578892900325 )
( 0.1726770827876891 0.0703791240722386 0.0018673388880353 0.1091146368563762 -0.0138269279079061 0.1182513569492645 )
( 0.1775138374138452 0.0809323688311102 0.0021926009764153 0.1179534795700447 -0.00897484198034 0.1264949486580695 )
( 0.1897168649850087 0.0967258571072519 0.0020177672235264 0.1321188293793824 -0.0035753354141385 0.1419808954775001 )
( 0.2040608626985271 0.1128060462029766 0.0010180518645106 0.1473340349757014 0.0014759885338548 0.162145276055403 )
( 0.2146286245245007 0.1237725010751839 -0.0002838674375223 0.1577291333867494 0.0044045907553289 0.1763818859482813 )
( 0.2240888136412543 0.1320458414425138 -0.001174591311095 0.1653240256866546 0.0055238006889718 0.1874465252052745 )
( 0.2323644675826472 0.1380571377218097 -0.0014970705967651 0.1710965367751311 0.0058873845193808 0.1960693822743956 )
( 0.239699904854605 0.1416916724393381 -0.000324846997378 0.174917506422346 0.006038459425311 0.2031065996134234 )
( 0.2462996317681273 0.1431789264750728 0.0022608623123837 0.1765755887650676 0.0057869518694678 0.208052293800078 )
( 0.2527066453788578 0.1428624115367301 0.0062250021914151 0.1763197357495556 0.0054665633169361 0.2109683451017473 )
( 0.2568693464857763 0.1405161856223837 0.0115806076713155 0.1734183405641088 0.0053074746014741 0.2114247888709373 )
( 0.2597258504173374 0.1363800007683324 0.0178469202711729 0.1693155601307185 0.0053571454735328 0.2110930101610789 )
( 0.2621886290232328 0.1316656321541752 0.0248942733081119 0.1642631264034085 0.0054825171736396 0.2097636839980736 )
( 0.2634428292904299 0.1263954499581834 0.031942116616561 0.1583346200876292 0.0061389075993953 0.2078109354887374 )
( 0.2639835738602917 0.1213638227260095 0.0384315346578304 0.1530468993237761 0.007044219454684 0.2057987553544637 )
( 0.2640392423556918 0.1173326417743912 0.0439613292201915 0.1483792266028217 0.007624712760323 0.2032184698024081 )
( 0.2632284173770142 0.1137053572676584 0.0484183099820748 0.1438680075117513 0.0083208107420185 0.2000752068295443 )
( 0.2625399063650786 0.1104159528289741 0.0523097604745207 0.1395882143439087 0.0089603858291738 0.1967040788457268 )
( 0.2618625520372621 0.107335962512209 0.0559671692828493 0.13512115188594 0.0093998511441408 0.1933326355258512 )
( 0.1696832297197043 0.0796864726678919 0.002578745146423 0.1169655069751323 -0.0073509030636415 0.126805396387155 )
( 0.1759074321066874 0.0909011693396289 0.0034184096932472 0.1283628935276098 -0.0031434825075629 0.1361877998644906 )
( 0.1884023152295513 0.1066224842731736 0.0037048891671544 0.1454213668445261 0.0014186451663578 0.1532168345228633 )
( 0.2016076831461065 0.1205944797878864 0.0035641010833563 0.1617561001184833 0.0049950002691466 0.1728440860195846 )
( 0.2104419192454082 0.1286169002923753 0.0045172838881295 0.1716290552712986 0.0069655899855624 0.1863348646373133 )
( 0.2182002594254308 0.1336907120326709 0.0065299244271779 0.1781014445507325 0.0080490552033599 0.1960397357119945 )
( 0.2252747713554313 0.1364864871358641 0.0105054429859818 0.1817148447567941 0.0090625491298281 0.2021743945968395 )
( 0.2310236942586788 0.1368765274979249 0.0158288316467676 0.182606748948151 0.0100623733574067 0.2063663598977278 )
( 0.2360015542830146 0.1354118562182736 0.0218337590620499 0.1807218990303422 0.0105253583744084 0.2070035130903798 )
( 0.2409360687853822 0.1325817273444362 0.0285971919522861 0.1769080108231375 0.0108642520381434 0.2043394318264786 )
( 0.2455634297734986 0.1287097193980868 0.036318971609575 0.171202905985483 0.011231445761339 0.1999551107956213 )
( 0.2493343546590896 0.1241351657066855 0.044310975665371 0.1642641659212675 0.0117531482273097 0.1955558539199118 )
( 0.2524751641059317 0.1196448724199891 0.0513858769914722 0.156788943986458 0.0124930924286984 0.1907286509221394 )
( 0.255022868166475 0.1157913568138478 0.0577345406897889 0.149784547202257 0.0135005095978981 0.1856112288833048 )
( 0.257255469947617 0.1128765067384466 0.0626956506294699 0.144227130273068 0.0143636213435034 0.1806684814582528 )
( 0.2595380171691683 0.1111501733918553 0.0665444906371157 0.139355772878206 0.0147797417595719 0.1761754825584831 )
( 0.2611405821936453 0.1100914082115321 0.0689842757313389 0.1348579778067264 0.0151001595418302 0.1719288781435943 )
( 0.2632355815872151 0.1097998584212637 0.070385657349645 0.1309851843995211 0.0150075578516281 0.1682426760896458 )
( 0.265773133108464 0.1103726394616591 0.0711923493343286 0.1272178214955425 0.0144444960533893 0.1652940412577533 )
( 0.1678116146392319 0.0862848277173138 0.0037797296007432 0.1246390001972355 -0.0029021877024243 0.1360917005658738 )
( 0.1735226596064612 0.096907145321159 0.0056692625721408 0.1379941929330395 0.0008483473486264 0.1474232648291924 )
( 0.1853083325952316 0.111564559416568 0.0080792043835438 0.1572831230868865 0.0052716993598977 0.1666339934419867 )
( 0.1975369676040912 0.1228247700139531 0.011059114490228 0.1732809965913913 0.0087093999137062 0.1854347736098936 )
( 0.2052245794807201 0.1276750254039272 0.0153248436551166 0.1814995985149689 0.0108398721033574 0.1963608902022474 )
( 0.212698712907017 0.130147755889485 0.0204901848520117 0.1863182096364125 0.0124933025340238 0.2031403423736721 )
( 0.2200063575226612 0.1306720685993805 0.0270225069938373 0.1878092228392762 0.0139144500281761 0.205385375733669 )
( 0.2260744821243191 0.1291214571793272 0.0337933376936251 0.186358590038918 0.0152344017247064 0.2039405802671421 )
( 0.2322307157411794 0.1266111261011067 0.0404784934641021 0.1827027169647794 0.0163674381299771 0.1986026843640836 )
( 0.2384359547402649 0.1238571887908805 0.0477122080803767 0.1771850214064898 0.0171553801010551 0.1903233994664911 )
( 0.2445605096897642 0.1211705399210595 0.0551102583435648 0.170749125492962 0.0177007665467967 0.1815625165181696 )
( 0.2503340763547988 0.118504623817738 0.0609319268666165 0.1634828403722749 0.0179866492574188 0.1728831809618403 )
( 0.2553322033541287 0.1162726791771031 0.065417041621775 0.155726584803627 0.0182489817968556 0.1656783215710313 )
( 0.2595358797205527 0.1153883845732606 0.0687672525022917 0.1496106267574862 0.018584541456517 0.1592459927746295 )
( 0.2637162558331014 0.1158460187508307 0.0702974042928907 0.1454360659408738 0.0183174700157097 0.153771228440784 )
( 0.2681668063341339 0.1171933865484242 0.0706713303699287 0.1418580923632024 0.0176384999491564 0.1502670184083893 )
( 0.2724240451213527 0.1193219117146528 0.0699801262236559 0.138940605541279 0.0168391969857061 0.1478716148479218 )
( 0.2771071221167347 0.1224423745674294 0.068329811455349 0.1366750888458977 0.0155928123032435 0.1464989213281546 )
( 0.2827033720782196 0.1267209176085609 0.0659130356568675 0.1344724313855531 0.0138066871197814 0.1472045583945614 )
( 0.1645364130771233 0.0904111381681066 0.0061195641602575 0.1328271925190696 0.0008177654252552 0.1471367366848252 )
( 0.1699912426865029 0.1005119456972083 0.0102842676685107 0.1480131008596195 0.0053610823650789 0.1610226810906974 )
( 0.1817034801061337 0.1134674163951098 0.0158519170526054 0.1679183693206966 0.0101528168464168 0.1808145957169925 )
( 0.1934523475877781 0.1218642432964415 0.0222555396511729 0.1823472268073571 0.0136029751259951 0.1969710206823615 )
( 0.2022050081433362 0.1248536799393082 0.0286712865221906 0.1890801721251744 0.0159054425657839 0.2042944262836045 )
( 0.2103810320807369 0.1258158952015995 0.0351212195479874 0.1925122077520364 0.0176976263822372 0.2064354882666364 )
( 0.2176447556295986 0.1250984385933702 0.0410866789590449 0.1927631531777625 0.018782202240494 0.2030627537196333 )
( 0.224911748540847 0.1233486917532851 0.0470503455494133 0.1904975909827003 0.0199320698715478 0.1953488934345386 )
( 0.2331262736908963 0.1217616791374205 0.0528686065941144 0.1869820377771146 0.0212016581938832 0.1848553315618802 )
( 0.2407247690683865 0.1203953865593361 0.0578581070571606 0.1818918546896898 0.0217607050646267 0.1729260763628896 )
( 0.2471135697926587 0.1194512010567032 0.0621288516705801 0.1754457297962495 0.021616071800469 0.1610738988331055 )
( 0.2535819602919463 0.1193104911719399 0.064758016577653 0.1690046706042341 0.0210697787921333 0.1506818724571128 )
( 0.2601699714282262 0.1203714162041844 0.0662592066059831 0.1631666690834947 0.0202400142760135 0.1434472086294574 )
( 0.2666081618638363 0.122772283218934 0.0664395593102926 0.158720723023922 0.0192915689107716 0.138380252350507 )
( 0.2728961874670294 0.1263034650847244 0.0648586197587944 0.156052737056066 0.0177045772492272 0.1354277806682727 )
( 0.2793590688333511 0.1309785980267316 0.0624302317337149 0.1546882190480656 0.0158433251708238 0.1349114993159152 )
( 0.2865738318684079 0.1365187659681112 0.0595946009546198 0.1537516776106028 0.0138259222311167 0.1360815790767263 )
( 0.294704222912004 0.1433013784209535 0.0558245666909785 0.1531638359408353 0.011384139505495 0.1389815036085074 )
( 0.3041880888254159 0.1513926321837135 0.0512468683677049 0.1528005130980076 0.0085138534790409 0.1442285081233599 )
( 0.1608669831221839 0.0934918206322619 0.0103837848822116 0.1411089074204155 0.0052050097022947 0.160276143878793 )
( 0.1669703496889412 0.1029053116629529 0.0174453881990794 0.1570578342967425 0.010539708117249 0.1751019972519171 )
( 0.1801227252645975 0.1139068383996742 0.0260028564307474 0.1764211550302058 0.0158471744143991 0.1940045295954919 )
( 0.1922023651693292 0.1201373818301063 0.0339730736447328 0.1894579069324629 0.0191232857106464 0.2068648114090867 )
( 0.2015172008381977 0.1221558211200866 0.0405391028032112 0.195228350929088 0.0211072116705249 0.2097742795170689 )
( 0.210397735468925 0.1226141674378864 0.0460280073118096 0.1981693834519062 0.0226405397849661 0.2060371014906628 )
( 0.2184859484469757 0.1218930021193861 0.0503958388284492 0.1983397363665633 0.0234188343858355 0.1968856282200558 )
( 0.2256690189824684 0.1207024449450472 0.0538705840159829 0.1970158836208367 0.0238497989970578 0.1845391810119572 )
( 0.2333553409961206 0.120548269098405 0.0571534738327907 0.195112243300117 0.0239512034564339 0.1699618469011347 )
( 0.2408715813601916 0.121006494801038 0.0593712175838984 0.1910732074573494 0.0235165900144358 0.1549922843831465 )
( 0.2476929859881643 0.1222997639015972 0.0604630175046944 0.1855587174833063 0.022216426583751 0.1419776749709728 )
( 0.2557069871039826 0.1252308743767627 0.0606767602793718 0.1802560428020612 0.0204767217593799 0.1330955022403775 )
( 0.2644870737824396 0.1296576866398558 0.0596664079592202 0.1768910237346279 0.0185632172360939 0.1278839896045005 )
( 0.27307013325116 0.1354558882661835 0.0571570603757878 0.1753218626675277 0.0163530418862132 0.1257091695514801 )
( 0.2816383015831453 0.1423489216303234 0.0537267436872258 0.1746405262298241 0.013718278642284 0.126647606971049 )
( 0.2907575081123907 0.150510925008089 0.049773957353614 0.1754206170995678 0.0108906489955434 0.1295489095542319 )
( 0.3010328567708721 0.1596820054345212 0.0453853680065566 0.1766011980749565 0.0078662384083306 0.1343282195558104 )
( 0.3126852213871409 0.1701767043603373 0.0403814725905977 0.1778886631027803 0.004471764967703 0.1415334460051303 )
( 0.325882951841231 0.1818002748515502 0.0347241288834442 0.1793539244461983 0.0006985318933907 0.1507997527490518 )
( 0.1571075757885823 0.0957876005152718 0.0172867657976751 0.1482839795422603 0.0106675308699271 0.1738579483034292 )
( 0.1641628447255961 0.1041274982756166 0.0268077968960621 0.1644170936891543 0.016785595379664 0.1893405594514175 )
( 0.1789654575351619 0.1134804969485306 0.0363379560639906 0.1833447231241977 0.0217405057071193 0.206182386645171 )
( 0.1914576577367537 0.1184868777148332 0.0432225774790791 0.1956819439043468 0.0242701637818445 0.2145338820387942 )
( 0.201262802881448 0.1202948559691099 0.048700336397061 0.2015927720124365 0.0258431683407678 0.2127192644013431 )
( 0.2094944607637074 0.1208895978421064 0.0518616212861732 0.2053688693275602 0.0268464495776326 0.2037728798260921 )
( 0.2164308307056631 0.120619369586809 0.0537272551762412 0.2066918862604702 0.0265602300203401 0.1892125735146008 )
( 0.2237167494306621 0.1207628892151629 0.055026968645738 0.2064808753792828 0.0256984610510002 0.1726820259280937 )
( 0.2307037016092137 0.1219797733466637 0.0556665460397923 0.2058860918179088 0.0244795174617679 0.155497738711039 )
( 0.2378462266885491 0.1243158725268531 0.0556441421543658 0.2040926285359687 0.0229034484046466 0.1393336725921122 )
( 0.2462201364497339 0.1285344510280644 0.0545557557211131 0.2005559703626001 0.0205012676979249 0.1271531686234621 )
( 0.2564838281936752 0.134834617633015 0.0529232856043796 0.1970998291173016 0.0175555158592916 0.1207737784259177 )
( 0.2678140378533022 0.143118045112405 0.0500503180239985 0.1963993092680064 0.0143990445930494 0.1186471277009232 )
( 0.2786339154709161 0.1524849810583558 0.0458538325788733 0.1973907565710635 0.0110951200703481 0.1202712611432188 )
( 0.2896919110526041 0.1626301194014178 0.041570333938551 0.1988002675422063 0.0077858127717774 0.1248666437195508 )
( 0.301371221003071 0.1741706911268442 0.0367783700874735 0.2016373236759222 0.0041313390249681 0.1308673944895126 )
( 0.3138121346489075 0.1866981973116846 0.0313038811801529 0.2054125215560577 0.0001885461910239 0.1385261335573839 )
( 0.3283262689277157 0.2004648822164735 0.0254438058940014 0.209046790299782 -0.0040274417078484 0.1484899764027707 )
( 0.3449775050078276 0.2154597365675394 0.0189207367108393 0.2124149640231893 -0.0085246256610902 0.1605388100174928 )
( 0.1543895108830104 0.0981463847850798 0.0261142082837853 0.1555887668322969 0.0175103026015465 0.1880694356443565 )
( 0.163534145376446 0.105804613633378 0.0368281661921836 0.1720003792924611 0.023623505709318 0.2034238033787619 )
( 0.1782852376861239 0.1134515715889541 0.0450115706328966 0.1901235192256508 0.0270461511766455 0.2165964514575347 )
( 0.1901364477057217 0.1176595145915489 0.0500036795580277 0.2020726351435994 0.028567907195585 0.2197479500021028 )
( 0.1994591165135353 0.1195524186836787 0.0526489667739894 0.2093414046432314 0.0293101059698137 0.2124419097271317 )
( 0.2059867531741211 0.1202822039648663 0.053233233324416 0.2145356539872397 0.0290214307468311 0.1982770687595328 )
( 0.2109450031570291 0.1206550316777916 0.053040810416123 0.2174635740334736 0.0275192506258041 0.179647934028468 )
( 0.2172322215045289 0.1222213054570718 0.0524672218912439 0.2190346046799706 0.0253251088007592 0.1598192689229229 )
( 0.2238264558472089 0.1250413467195052 0.0510824209881807 0.2197640125269902 0.0227941325562081 0.1416052560243361 )
( 0.2320565834108996 0.1299965805550688 0.0493689130086077 0.2197471301244374 0.0200159403134024 0.1265636254329179 )
( 0.2434242250880725 0.1373310404153931 0.0471010168393249 0.2185721205414292 0.0168627872049882 0.1167442851372461 )
( 0.2559579710204085 0.1468212223738384 0.0440205462372913 0.2179547330065033 0.0131715805718063 0.113083622072835 )
( 0.2691682654851539 0.1584992940349464 0.039992686575043 0.2197023706505221 0.0090834070390172 0.1146498083997398 )
( 0.2824065515482594 0.1711689521179634 0.0352469731382205 0.2227523028887336 0.004912790388423 0.1198345045960959 )
( 0.2954749642088605 0.1848593716659022 0.0301817756602729 0.2272821152735494 0.0007566513665243 0.1266635239562417 )
( 0.3090958587696713 0.199865533393365 0.0244972493957603 0.233216442009713 -0.0036680083397648 0.1347695415760574 )
( 0.324259808053299 0.21595817680645 0.0183306201026322 0.2399172286386536 -0.008330847653636 0.1445461801563098 )
( 0.3422864571390087 0.2331655673228735 0.011929281801065 0.2460998541673558 -0.0131830473237283 0.1561313059077203 )
( 0.3636858102620548 0.2518001977131129 0.0050192007170613 0.2513144419020574 -0.0179523682689493 0.1695424331946567 )
( 0.1537331725375206 0.1008791420159277 0.0358868793581935 0.1624146500290387 0.0245357506031676 0.2015472419921367 )
( 0.1636061223222091 0.1071964626168444 0.0454340464041744 0.178505560153654 0.0297605773576942 0.2144772465308438 )
( 0.1772648212849873 0.1136341655900705 0.0513395941807421 0.1967779644865026 0.031740387962462 0.2244080569307885 )
( 0.1872327617773434 0.117488178731253 0.0535999864419072 0.2091072737481957 0.0317774576566341 0.2227820790309016 )
( 0.1938777931723524 0.1191019703471983 0.0529181552826464 0.2176825867562001 0.0311090451732467 0.2094143251166356 )
( 0.1986290410203064 0.1199614939363358 0.0512872209136346 0.2243369633536873 0.0292013006735432 0.1906463351806616 )
( 0.2030919753490312 0.1214698232797011 0.0496176337853883 0.229624688670064 0.0263742897245991 0.1694701160688337 )
( 0.2083347470537054 0.1241602843187289 0.0475019232691118 0.2334510859990546 0.0230590267979699 0.1482129060798425 )
( 0.2154884442663018 0.1287226882696456 0.0450514525471047 0.2354480667164179 0.0198743356910759 0.1299296810437621 )
( 0.2252246761536512 0.1364886318250358 0.0423201133025802 0.2371091578359341 0.0164201878454747 0.1165895971917673 )
( 0.2383104715703186 0.1471387165661235 0.0393034340675205 0.2389144204149607 0.0124825248710584 0.1094928305854462 )
( 0.2536442071616887 0.160401784458122 0.0354441943440715 0.2416083497489661 0.00789010526958 0.1089599191535086 )
( 0.2687848868516906 0.175314609528316 0.030798778853882 0.2461187806098022 0.0030854930122133 0.113391243171797 )
( 0.2842201789106249 0.1911931644608234 0.0256026332680572 0.2517845300324972 -0.0017333377619311 0.1210137428921401 )
( 0.2997102089571823 0.2085597897748221 0.0196535941230256 0.2599389742889722 -0.0068519117903116 0.1298574665462984 )
( 0.3160697890426777 0.2273743368510958 0.0135519069513741 0.2697085080954362 -0.0118900789853777 0.1396951350956442 )
( 0.3351039171843505 0.2475614874715583 0.0072089282703002 0.2796542658850255 -0.0168818545942714 0.1507249755617206 )
( 0.3572693746283536 0.2685461387630366 0.0007356998713075 0.2883953071196601 -0.0217308485764953 0.1629590963262837 )
( 0.3839021807835526 0.2914311269945789 -0.0059815966525416 0.2960789790569977 -0.0261174149120228 0.1768577553362548 )
( 0.1529675335328538 0.1031587714589929 0.0450049996582615 0.1687408136480866 0.0309526938404905 0.2134944039353966 )
( 0.1622161382410059 0.1085564153688708 0.0526335475343523 0.1849474896674628 0.0352088825362538 0.2237517665861512 )
( 0.1744971139979607 0.1142528565602114 0.055026889214115 0.204215742651601 0.0353788995196003 0.2289549389571225 )
( 0.1814537797372367 0.1171751633146424 0.0538153410839447 0.2171966888250879 0.0336954646869545 0.2221516544124196 )
( 0.1852480040731217 0.1184850369928288 0.050982249706611 0.2274166509885501 0.031319498688819 0.2041435811481081 )
( 0.1886002817633013 0.1199395376919719 0.0476708268984505 0.2359655030577805 0.0280609711400131 0.1818059854670877 )
( 0.1931701397437687 0.1224842793370897 0.0445783994297087 0.2428110694207056 0.0239418257694699 0.1586406539398605 )
( 0.1987993011929266 0.1265614807867895 0.0415019928986736 0.2484986825326856 0.0199750247019696 0.1368201597036346 )
( 0.2072085654734666 0.1334497225081925 0.0387087179862676 0.2523366918986243 0.0164509097330846 0.1194773316211507 )
( 0.2181248240799941 0.1439890351098625 0.0354842663271844 0.2568452015916301 0.0124774637456465 0.1082828150940966 )
( 0.2321685020207077 0.1576463620485557 0.0318136255012923 0.2619911212360279 0.0078197969714639 0.1042086399249077 )
( 0.2495383903674657 0.1745183616152195 0.0275081744845179 0.2681519311018636 0.0023061377076961 0.1067337329803592 )
( 0.2671865798419262 0.1931800370536123 0.0223050966318866 0.2759209226081053 -0.0032443770853714 0.1135140137435747 )
( 0.2859379587746302 0.2131316633509912 0.0166613388020247 0.2848288704437601 -0.0088377821289907 0.1233119147399685 )
( 0.304753728301889 0.2344818790548412 0.0105454016888765 0.2970784390983894 -0.014597172396502 0.1341754736891098 )
( 0.3238277525687693 0.2566712206653402 0.0045979723525057 0.3108172909030309 -0.0198632320758546 0.145060244087649 )
( 0.3461482056575633 0.2804717332426661 -0.0014230762033419 0.3239967373047183 -0.0246733093716919 0.1562114402081062 )
( 0.373582135625148 0.3062298407494148 -0.0077739609421053 0.3357741240797535 -0.0291962780301803 0.1687062995622569 )
( 0.4069683035997901 0.3342212831718147 -0.0146908347587156 0.3461548710152826 -0.033511728057482 0.1828191734988999 )
( 0.151144984964406 0.1052977596573354 0.0533317829379033 0.175101496819523 0.0375702197198416 0.224706709796265 )
( 0.1590603876552309 0.1101967629637673 0.0579317654412746 0.1922394315301647 0.039736101001946 0.2323514544888247 )
( 0.1688303275444834 0.1148778600649609 0.0563256016362478 0.2121671326757795 0.0375517005033357 0.2315536524138472 )
( 0.1733722009941368 0.117049886703057 0.0523469827907021 0.2262793098627103 0.0343082592296935 0.2187982994973061 )
( 0.1758286920939721 0.1183152393749057 0.0477235129376701 0.2377167639595633 0.030148699433813 0.1971219405438443 )
( 0.1784193291274133 0.1202279917766249 0.0433892172334494 0.2474838753574947 0.0256412146367461 0.1720523053961802 )
( 0.1827730268848156 0.1237397489642599 0.0393024514140604 0.255665385220555 0.0209798880475872 0.1476780443202347 )
( 0.18866388231143 0.1296647200273842 0.0355755139620787 0.2641017922238226 0.0167625396625869 0.1263373486422827 )
( 0.1975903735194684 0.1389152839954359 0.0325437477233723 0.2719083111805334 0.0125688478039616 0.1107968236229027 )
( 0.2104344136696895 0.1519278303172347 0.0292354673140919 0.2787240360616512 0.0079636608980654 0.1021216942698444 )
( 0.2272518219527936 0.1690152339896944 0.0253321342435566 0.2866661331740602 0.0026068296765275 0.1009007654841277 )
( 0.2464355012589371 0.1894206235443968 0.0205989230764389 0.2963512570296513 -0.0034296086316218 0.1060693900067286 )
( 0.2664238074588632 0.2117913145623207 0.0152155284208325 0.3080187239229969 -0.0094046561428087 0.1152178801289329 )
( 0.2879198013898156 0.2360567096935822 0.0093242514823917 0.3220127586102577 -0.0157272664775445 0.1268516753241285 )
( 0.3090057600486328 0.2608610574516433 0.0034287557485742 0.3386001392200671 -0.0216433756256971 0.1382093085231212 )
( 0.3311399486432048 0.2864677951599836 -0.0023360473189995 0.3558059316103286 -0.0268430063289779 0.1491302178497786 )
( 0.3578213171647545 0.3148917639320274 -0.0084632100217046 0.3731877559238805 -0.0317896261725292 0.1607115818915497 )
( 0.3910859995323126 0.3463032948005887 -0.0149231454998287 0.3893502904418058 -0.0364230211126204 0.1736376613003297 )