/*--------------------------------*- C++ -*----------------------------------*\
| =========                 |                                                 |
| \\      /  F ield         | OpenFOAM: The Open Source CFD Toolbox           |
|  \\    /   O peration     | Version:  2112                                  |
|   \\  /    A nd           | Website:  www.openfoam.com                      |
|    \\/     M anipulation  |                                                 |
\*---------------------------------------------------------------------------*/
FoamFile
{
    version     2.0;
    format      ascii;
    arch        "LSB;label=32;scalar=64";
    class       volVectorField;
    location    "0.0039";
    object      U_LES;
}
// * * * * * * * * * * * * * * * * * * * * * * * * * * * * * * * * * * * * * // 
 
dimensions      [0 1 -1 0 0 0 0];
 
internalField   nonuniform List<vector> 
13597
(
( 17.12237066895447 1.6428103534049407 0.044644379587338 )
( 17.1190427896521 1.68258084570973 0.0484859381668505 )
( 17.1223466772361 1.763446780591364 0.0554232151185805 )
( 17.131930562994196 1.867005892260181 0.062903768529489 )
( 17.141101945389046 1.9556763583123813 0.0672981847283072 )
( 17.144956954475308 2.029408354889021 0.0681696905891601 )
( 17.151885319966294 2.1019026495512807 0.0679240270277049 )
( 17.162287327030583 2.179317297561976 0.0666070707347463 )
( 17.175218800393555 2.257456892469329 0.0634120014160449 )
( 17.18988043600062 2.335616047760672 0.059348137887954 )
( 17.20544515875842 2.423230834860958 0.0540914502771845 )
( 17.225930211695598 2.5111706031841425 0.0474969056806068 )
( 17.250334593325046 2.596860792361088 0.0405727864555471 )
( 17.275644669010568 2.6882169420266493 0.0331493976097467 )
( 17.30141951166061 2.78263610915622 0.0259025890075727 )
( 17.330984651726638 2.875846639274332 0.0193703666483076 )
( 17.364943805354958 2.965903318458984 0.0131709391452356 )
( 17.40082668286195 3.0562520110350686 0.0079091585907777 )
( 17.438299009039163 3.1494666801698337 0.0029981022998904 )
( 17.001758446838696 1.666410677793561 0.0415036685992169 )
( 16.97826167529937 1.7139789359706488 0.045691657595471 )
( 16.951664060152492 1.815134134262164 0.0533503860519721 )
( 16.92414667314195 1.930970839622585 0.0591957727167602 )
( 16.899144575908508 2.02078225934006 0.0608876905960419 )
( 16.873992378016755 2.10525755740229 0.0604951409547254 )
( 16.85370622689197 2.191207601230545 0.0582191641725542 )
( 16.834756245457427 2.281593377774151 0.0541538876470014 )
( 16.82037609412659 2.375015908228204 0.0485867264333537 )
( 16.807855196357732 2.4691860110459247 0.0422443751467515 )
( 16.79547884263776 2.5747433625455183 0.035233911197281 )
( 16.78397935492171 2.688109227577114 0.0274278169538264 )
( 16.773911093474453 2.802707788068446 0.0199395999028584 )
( 16.768807925951734 2.9215325335777256 0.0124368504642816 )
( 16.76732664337742 3.038961070231052 0.0058901332404238 )
( 16.77033229022825 3.1507207122905263 0.001360483737237 )
( 16.77576356700404 3.254189936354537 -0.0019175846741696 )
( 16.782099257466907 3.3598512141983 -0.0039774436784051 )
( 16.794533474380955 3.4648242454268585 -0.0048902913965997 )
( 16.875053915460853 1.6754655702021892 0.0370104755711205 )
( 16.82575155667787 1.7269671006330278 0.0405073894443589 )
( 16.764808978203657 1.8393329010489576 0.0464924820615304 )
( 16.70004404856938 1.9612776831544092 0.0494211946465955 )
( 16.64300720722534 2.0525577319876334 0.0478909818991497 )
( 16.59345691812199 2.146139502547556 0.0443002079276802 )
( 16.549438588952277 2.2454217505593266 0.0385676481072201 )
( 16.50294202036037 2.347317480948587 0.0308945614132795 )
( 16.461978841792035 2.456926000821692 0.0220702218439503 )
( 16.424771149923888 2.577042483413486 0.0128842601951647 )
( 16.388254102101342 2.704839600585935 0.0036216167992311 )
( 16.35398347331352 2.843728239952851 -0.0051235221040548 )
( 16.323621919666902 2.9882195490652634 -0.0124729601047606 )
( 16.29899588071937 3.127768258216604 -0.0185752566642846 )
( 16.2793096656797 3.256086079606716 -0.0230065637868641 )
( 16.264483563917576 3.371092159286789 -0.0253679852776303 )
( 16.249269761916945 3.4747274023047807 -0.0266479961203483 )
( 16.23445983940213 3.5783711320369607 -0.0271527256412659 )
( 16.22841936494279 3.6860424995538414 -0.0260894688968938 )
( 16.737127655051594 1.6694992312102093 0.029780097795346 )
( 16.660171024837748 1.7230250842869157 0.0312174415372071 )
( 16.569210245619114 1.838779038754201 0.0348584120960722 )
( 16.473691730371627 1.9641926744935985 0.0347496540871887 )
( 16.38783616832475 2.06186483259086 0.0291312625229132 )
( 16.313282214401536 2.1627796055525623 0.0212168295304504 )
( 16.24122529152373 2.2746593124189527 0.011036150156943 )
( 16.169263068581877 2.391747430946509 -0.0004879452127314 )
( 16.10764842643352 2.5178329805482864 -0.0117962461117271 )
( 16.050779204512324 2.6565701207002816 -0.0226602636292076 )
( 15.993074922207702 2.8061685213810788 -0.0326743227034067 )
( 15.944095751185884 2.963381729465564 -0.0405305753376758 )
( 15.900992754899717 3.120863267504356 -0.0460791313574158 )
( 15.85797718201701 3.2721538980168785 -0.0495851637958457 )
( 15.817184532322738 3.402295367992929 -0.0512813502875893 )
( 15.779669481530606 3.513791979417838 -0.0515649981916766 )
( 15.743399448639092 3.6149612743100272 -0.0505402324457906 )
( 15.70438802567337 3.7166990467037113 -0.0487073666286923 )
( 15.66890691599898 3.829495673338866 -0.045974042708845 )
( 16.59380525959501 1.6506531217978493 0.0207680435176073 )
( 16.49468557611201 1.707902953540389 0.0204921930885468 )
( 16.375698518102315 1.8284197076928292 0.0208100344748574 )
( 16.252348089128834 1.9548810698901624 0.0160138659317375 )
( 16.1451109080039 2.0581710283576107 0.0056632857649239 )
( 16.04843069930584 2.167056801493645 -0.0062537429302407 )
( 15.951242577059793 2.2899153959319207 -0.0200232108337354 )
( 15.85930279321036 2.4200712413117977 -0.0335742315409778 )
( 15.778044555890094 2.5562348610421357 -0.0448947399409767 )
( 15.69870037375468 2.705425087993301 -0.0546729107524408 )
( 15.61822419175367 2.8706551149994697 -0.062593517482683 )
( 15.544016875559588 3.040480717446408 -0.067556769104207 )
( 15.473542970945354 3.204892387419004 -0.0693632491313142 )
( 15.401911073800829 3.3581106286965188 -0.0690064120396744 )
( 15.330894333745938 3.483313987002985 -0.0674803834179907 )
( 15.261681770577226 3.5949426316599062 -0.0650068515618761 )
( 15.19563953317344 3.7010721556274886 -0.0611363868823477 )
( 15.129613870081736 3.8069071373732495 -0.0560857842073215 )
( 15.063296018839887 3.925704038047005 -0.0500327508995537 )
( 16.451420720345315 1.6197158271931855 0.0102892409482577 )
( 16.331373431253926 1.6816499248748589 0.0078828569483965 )
( 16.184159023083136 1.8102291331936216 0.0034393304968765 )
( 16.04031306550945 1.93913026476476 -0.006357489639178 )
( 15.917405008038514 2.0476710301938046 -0.0200461111135302 )
( 15.803372251832885 2.1647138490779207 -0.0343705455139193 )
( 15.690259563024114 2.2927236955794523 -0.0484802390862678 )
( 15.578389206812853 2.4286876092458645 -0.0610439789555617 )
( 15.4669858808996 2.5720502816979915 -0.0703801910381883 )
( 15.356730521115178 2.733804560011098 -0.0774319464515646 )
( 15.251046055152592 2.905471662069074 -0.0816761041579608 )
( 15.144206453747902 3.0774628353119065 -0.0819166712910661 )
( 15.041679884216071 3.245299873357565 -0.0789595979554248 )
( 14.942758445798438 3.395768077990308 -0.0739572478771404 )
( 14.842582435007824 3.519756795735713 -0.0683135087670354 )
( 14.749262322641664 3.628788062028256 -0.0623094125813959 )
( 14.658041364522504 3.733603337050916 -0.055566319819348 )
( 14.566480091174505 3.839682008341105 -0.0478915555092288 )
( 14.475151600246624 3.960434471905239 -0.0391219806415175 )
( 16.30500484362563 1.5802212371166082 -0.0007575820510554 )
( 16.166082632719988 1.6484929338651506 -0.0065000579875471 )
( 15.999515957016095 1.7839790754673603 -0.015762836217442 )
( 15.840995871141905 1.9143766448196868 -0.0298231750045661 )
( 15.702891311237565 2.026153619032534 -0.0451235366818404 )
( 15.569123002098952 2.146136152051497 -0.0596572646889901 )
( 15.437378730816851 2.2786655430847613 -0.0719958103481243 )
( 15.303820743965831 2.4195002456608075 -0.081941005556428 )
( 15.163691269746684 2.565477373030333 -0.0880039868935615 )
( 15.029984624291153 2.7305466468927264 -0.0896788952652655 )
( 14.896693754388666 2.9057752040307183 -0.0884183489873242 )
( 14.757873207810407 3.0807381601396924 -0.0837217045877608 )
( 14.627392836345924 3.244655428590664 -0.076529033769734 )
( 14.502473231916683 3.3894194314506167 -0.0678828738665968 )
( 14.37812171521782 3.5150398108984344 -0.058520127778014 )
( 14.261317638771631 3.619585843578734 -0.0496661035212314 )
( 14.148497305078097 3.72030081480764 -0.0407220324946404 )
( 14.033518295539428 3.829345406601922 -0.0310264460871528 )
( 13.91904976524491 3.952120079667392 -0.0207282766833819 )
( 16.165807360601818 1.536921584789967 -0.012410807560247 )
( 16.010091919383044 1.6077782258450457 -0.0215100374763237 )
( 15.827722779976876 1.7466359552117707 -0.0350023839774632 )
( 15.65591684387266 1.878270908644272 -0.0517275050009045 )
( 15.500745655630256 1.9928029992985563 -0.0675195026304668 )
( 15.347132402013033 2.116637346715811 -0.0807581087545977 )
( 15.192528551629438 2.25277187825014 -0.0898628318071109 )
( 15.038622397045888 2.391955068560608 -0.0955133792952421 )
( 14.87457515467415 2.5369255493054936 -0.0975952429869811 )
( 14.71576567251676 2.705220179445777 -0.0934922469913481 )
( 14.553580922813572 2.88202046306882 -0.0860612873102614 )
( 14.38995791163322 3.058376755659656 -0.0768842324881619 )
( 14.234781534647713 3.219705510081334 -0.0661410438438509 )
( 14.08246889631909 3.3552825524980774 -0.055204122067883 )
( 13.941077843336814 3.4720635081580227 -0.0444235655154123 )
( 13.803357792570528 3.57472597568403 -0.0340696548785612 )
( 13.668530602889325 3.677298210345088 -0.0234352927621889 )
( 13.53332666604422 3.790759472402142 -0.012343007612793 )
( 13.398761437590622 3.917411486555212 -0.0009709935560985 )
( 16.034805051028048 1.48568887210307 -0.0254802504627067 )
( 15.863811105858296 1.555925764226184 -0.0381143988321483 )
( 15.666815322979746 1.697625360668183 -0.0543835530261951 )
( 15.483702386563252 1.8298638931516096 -0.0710033338101926 )
( 15.30921828720009 1.948524402631535 -0.0860568826213275 )
( 15.1396591318479 2.072002747269705 -0.0969495840493075 )
( 14.967759251523509 2.204436128812493 -0.1018506720717434 )
( 14.793527516958372 2.3470472108229887 -0.1022662721723796 )
( 14.61078722757512 2.4957876939967742 -0.0992483486748848 )
( 14.41979074875609 2.6604619545689494 -0.0912246796953091 )
( 14.230876633063849 2.8365018519790985 -0.0793899308249336 )
( 14.048299333040411 3.009501182889882 -0.0662550682562183 )
( 13.866036215134944 3.1672167298766447 -0.0525795717072748 )
( 13.691561283408792 3.299141295062676 -0.0399539557955489 )
( 13.534261328362163 3.4094934964147834 -0.0287620649579961 )
( 13.376776230640886 3.5125543499441187 -0.0174597209874516 )
( 13.220647180893884 3.615135942446144 -0.0055466450178409 )
( 13.064443814424074 3.729326592618583 0.0068009938490973 )
( 12.906310282249253 3.859864071334041 0.0194369562859203 )
( 15.906562588370448 1.4323473202345307 -0.0396863692765772 )
( 15.723002256342932 1.5083624960570028 -0.0550397841871764 )
( 15.515193932041392 1.6510956581591263 -0.0723965619737788 )
( 15.320491059408695 1.7773531547795547 -0.0881836146578869 )
( 15.132038037802984 1.8975353166794595 -0.1004004541548778 )
( 14.948002164785583 2.0154705432999216 -0.1072429281190406 )
( 14.75664172445743 2.139716806721625 -0.1088593699575216 )
( 14.556913885536623 2.281163542035269 -0.1047169645273936 )
( 14.35720033795355 2.428901446047599 -0.0959148678001581 )
( 14.145912889750198 2.591891848974113 -0.0842793381725489 )
( 13.934342075271518 2.7712242376843657 -0.0699703743774906 )
( 13.73092625149038 2.944449039874822 -0.0544011526111845 )
( 13.529148505193014 3.0951614986629328 -0.0389635194824187 )
( 13.33892062106639 3.224651781924808 -0.0250758283559843 )
( 13.15968233847491 3.332805805189928 -0.0124194472772211 )
( 12.979661865310524 3.4319133978464627 0.0002247776468018 )
( 12.798159045669244 3.532178715628347 0.0130297587259539 )
( 12.617702051962532 3.6459599864335055 0.0254623534760544 )
( 12.436170516526262 3.7817880524266414 0.0371287615071178 )
( 15.78980455216142 1.3805714729144585 -0.0542672444398896 )
( 15.599281039105884 1.4626109999644406 -0.0703136355171874 )
( 15.37525144244419 1.6018146095171164 -0.0880381254002949 )
( 15.17150210916399 1.719513535023124 -0.1025798749241282 )
( 14.972498846884251 1.834377178546717 -0.1108605528268461 )
( 14.769849552693564 1.948641268087873 -0.1131761934052476 )
( 14.560063152853845 2.065357859943612 -0.1113328685341419 )
( 14.344455738368683 2.1980344414697783 -0.1034106619139005 )
( 14.124564304996609 2.347828383424578 -0.0906743003239789 )
( 13.89764425337821 2.5120362222389403 -0.0760518440146142 )
( 13.666246222163968 2.6882765491275715 -0.0595529443154714 )
( 13.43564949770208 2.863752113638637 -0.0415767259595179 )
( 13.219772620687978 3.009634105071657 -0.0249494386956995 )
( 13.013308977333846 3.135868052951478 -0.0100943412847185 )
( 12.807091685509334 3.242582423212927 0.0041512059956089 )
( 12.600164078825395 3.3368218448482136 0.016908699785447 )
( 12.393647599422149 3.436337007802298 0.0285753727963081 )
( 12.192508076716056 3.5525433354604545 0.0390329411284778 )
( 11.987318312048211 3.694686264492834 0.0485110695745883 )
( 15.68191304174835 1.3252835520078765 -0.0691442486859368 )
( 15.481494785726063 1.4095561050628744 -0.0858988288646355 )
( 15.24374497277353 1.5462112924721982 -0.1020048148535999 )
( 15.032966787781293 1.6550813871049304 -0.1131823602702153 )
( 14.82224665092841 1.7597315793383386 -0.1177788750818942 )
( 14.60296728839657 1.8707981776143363 -0.1167699502295751 )
( 14.382347492082038 1.990189247471896 -0.1101006848200018 )
( 14.152096287478358 2.1207477939320607 -0.0982068449548803 )
( 13.913169428526148 2.269139076655028 -0.0831898753562171 )
( 13.66788822463934 2.428891219650876 -0.066495052492636 )
( 13.41796926962285 2.5977610863631364 -0.0479925072970538 )
( 13.166119569467355 2.765405191084005 -0.0283403757836605 )
( 12.926542038521015 2.911705631683397 -0.0109724665692239 )
( 12.694933503907665 3.041064707702568 0.0043004137909013 )
( 12.462761454570945 3.144083547295443 0.0182188105027694 )
( 12.235758288968912 3.232157562607159 0.0294069847817831 )
( 12.012328415525166 3.331401049316664 0.0390298798464661 )
( 11.789336383272664 3.455911788928674 0.0482925300868682 )
( 11.559318286247128 3.607189073598388 0.0585031790258937 )
( 15.580905806819636 1.2613479205291116 -0.084934459820396 )
( 15.371631189989234 1.346092305867059 -0.1014268292860489 )
( 15.128243850061894 1.4815880468082234 -0.1143419429817502 )
( 14.905758362519247 1.5877915721057403 -0.1213294897197346 )
( 14.684303204735578 1.69114997849863 -0.1220156499879942 )
( 14.454039186849696 1.799511047630859 -0.1171410544750102 )
( 14.220439897830495 1.9161097167659933 -0.1064175140147009 )
( 13.97274597383918 2.0399819020887606 -0.0917993958902421 )
( 13.715921227222475 2.179672778412899 -0.0751101217338774 )
( 13.454911756708317 2.3391888787918784 -0.0562607589748391 )
( 13.18284742525954 2.510013193906804 -0.0358232485667747 )
( 12.911646656092012 2.6704552953410308 -0.0161082930236459 )
( 12.64551005279753 2.8127278127033017 0.0010338455376153 )
( 12.38385494341428 2.9373531613046664 0.0160250023669606 )
( 12.135348210996549 3.0315168479459644 0.0281014560610307 )
( 11.896295994727357 3.119276341658068 0.0382272664602491 )
( 11.653129579772887 3.222916993088426 0.0480982750379322 )
( 11.403140946579018 3.35254889395555 0.0583751267711929 )
( 11.139984379513985 3.51795956698915 0.0712041544425445 )
( 15.48977048716222 1.1897794002389728 -0.1005179208073637 )
( 15.278882477222808 1.2766004978692629 -0.1142623529649529 )
( 15.026502190332485 1.4110776774176603 -0.123708506903952 )
( 14.79257735151369 1.5151271275405829 -0.126928491664339 )
( 14.559698363288266 1.6168331503860582 -0.1234418076544798 )
( 14.32263877383998 1.7187301637369778 -0.1144660080010488 )
( 14.075867853073817 1.829276568145583 -0.1016464895102505 )
( 13.817945717659184 1.9496317925419693 -0.0860716789389355 )
( 13.543649565377494 2.082731786425723 -0.0676015448081255 )
( 13.260237270945632 2.2395325838289293 -0.0469753367707283 )
( 12.965244626155554 2.4097820686976767 -0.0257168511207931 )
( 12.66740265791687 2.5717078837399185 -0.0058140535268999 )
( 12.378083706787937 2.71270103198907 0.0110606939647951 )
( 12.100086834079386 2.8251618064055437 0.0246832673356306 )
( 11.835746979314004 2.9127639398790675 0.0359535592300904 )
( 11.573382638760652 3.005620397446695 0.0467812587599342 )
( 11.30413341169886 3.119877088162773 0.0579132400608905 )
( 11.022112917437866 3.2505601489622307 0.07010776556431 )
( 10.716835246532185 3.421470983524854 0.0844766020185926 )
( 15.410384786489772 1.11994808246416 -0.1141338277322967 )
( 15.192728888037015 1.2092256749293726 -0.1243307448976138 )
( 14.922552267923672 1.3422287794307517 -0.130425680609179 )
( 14.682489320948804 1.4373267080062455 -0.1299577487128891 )
( 14.44424579914393 1.5324061184288216 -0.1226447392202451 )
( 14.200802960317503 1.6300736984579265 -0.1112001047036837 )
( 13.941688810961171 1.7345734761380835 -0.0965702386752648 )
( 13.668043536513338 1.8535132020440168 -0.0791332821747973 )
( 13.38088320828867 1.9826806979283904 -0.0585770345022369 )
( 13.077787747414243 2.1314820917322006 -0.0372181075500004 )
( 12.756817225465683 2.299563935654892 -0.0163777359010131 )
( 12.431902216679685 2.458516519731687 0.0031215784273746 )
( 12.1188219888062 2.5982781933230763 0.0196563896371743 )
( 11.829326518277972 2.705147977266064 0.0324247448881918 )
( 11.549977630021296 2.790669908591862 0.0438632768157318 )
( 11.262873078241222 2.885978315720025 0.0557590976761016 )
( 10.959754138842728 3.004144946105648 0.0683566468621861 )
( 10.636527702106877 3.146284103344248 0.0820119954321386 )
( 10.297056616361797 3.3364349770381216 0.095900772419698 )
( 15.339809382236831 1.0533351377780038 -0.1255744792504698 )
( 15.114420986972258 1.1417431883920768 -0.1330073642810545 )
( 14.832770526441044 1.2700407839496977 -0.1352458546801593 )
( 14.586464878123802 1.3549659609856188 -0.1313682186904663 )
( 14.34297632020496 1.4401091497267875 -0.121209079461982 )
( 14.089524507556996 1.54063800814392 -0.1074201176165513 )
( 13.81969140853482 1.6376025457178904 -0.0910833254429061 )
( 13.528673919816791 1.7455778052048578 -0.07137610261846 )
( 13.223934074366518 1.8767380433684404 -0.0495724673818154 )
( 12.902448931662738 2.0190550090652755 -0.028464460597826 )
( 12.551587668365146 2.187057239272685 -0.0074906106143468 )
( 12.198150485696331 2.34677280402947 0.0115882470247273 )
( 11.874302551367911 2.4760781149555773 0.027122483660207 )
( 11.576485261578757 2.5777792997020472 0.04043340859601 )
( 11.278215582632088 2.665955035233136 0.0524264257823347 )
( 10.962807247180274 2.763748345860115 0.0648516637474874 )
( 10.620726965036598 2.8835917183164863 0.0796897231379707 )
( 10.255243454915936 3.0416527011786094 0.0929331055021007 )
( 9.900643196521992 3.2702957524878262 0.1040316347132469 )
( 15.278292218850854 0.9877654507800322 -0.134337438590474 )
( 15.042617330038045 1.0701070330953184 -0.1397283271662591 )
( 14.75392234330198 1.196081145616812 -0.1378005723396994 )
( 14.506317390143613 1.2760956827917742 -0.1311100764082136 )
( 14.254624905712683 1.354882245568482 -0.1188076897026596 )
( 13.986318715148464 1.4495005925612492 -0.1024337708453257 )
( 13.70406248050732 1.536495615597354 -0.0848902623056142 )
( 13.40552253238038 1.6402738641138692 -0.064539651413082 )
( 13.081600953117546 1.770673657938592 -0.0424037616156443 )
( 12.735343357957705 1.903135209941332 -0.0213572216137562 )
( 12.371010308708062 2.063402912722422 -0.0005681988186258 )
( 11.996413626089977 2.232963891914604 0.0187362744411831 )
( 11.657828147704429 2.357148599574705 0.03476495878727 )
( 11.34225747726846 2.448823044188963 0.0485522059283183 )
( 11.014388139003414 2.5393124277643038 0.0604591765866458 )
( 10.660077131478827 2.634968081338056 0.073482464239962 )
( 10.28206181334968 2.7629748092036923 0.0874865531811367 )
( 9.897241465561018 2.9441651265327784 0.0981004655432165 )
( 9.545822116280329 3.220097698743787 0.1077769225574798 )
( 15.220459256759352 0.921490324186986 -0.1416727084558384 )
( 14.978509990634455 0.9982398381774052 -0.1440268824006405 )
( 14.684149585940228 1.1175202803645266 -0.1389246905092062 )
( 14.435801221393245 1.192495038309704 -0.1300553672833359 )
( 14.176171997567389 1.271039714026431 -0.1161751254228025 )
( 13.89435456904862 1.3586640214742352 -0.0980244428024653 )
( 13.603820325009885 1.4328631273392836 -0.079658672268072 )
( 13.29168352293318 1.5356910581007148 -0.0587809666398487 )
( 12.946717230480164 1.6651835472455212 -0.036118915663757 )
( 12.58042708465539 1.7969630786804245 -0.0146453970200431 )
( 12.196873917265098 1.94410844268714 0.0070651045454099 )
( 11.80816873794647 2.0963192587574384 0.0266573635088023 )
( 11.453066327044098 2.221018841492494 0.0427263501032753 )
( 11.109239145184109 2.316579914049055 0.056332348532847 )
( 10.750230229518833 2.398469901549626 0.0677106469351726 )
( 10.365852666200828 2.4947793978039288 0.07987443623497 )
( 9.95972404021896 2.633427006178311 0.0918228188651572 )
( 9.572485699816818 2.852951466239124 0.0998667561196641 )
( 9.204519719224798 3.193439224161576 0.1071020581577215 )
( 15.17081699728738 0.8528546822259211 -0.1481106495662559 )
( 14.92464039232639 0.9236975623533578 -0.1472579695432831 )
( 14.622079011897664 1.0320979186618695 -0.1390274937153971 )
( 14.371200093291533 1.105875344121307 -0.1283709308865345 )
( 14.10362515653643 1.1794289716543902 -0.1135027908072202 )
( 13.808146209748436 1.2625096502380826 -0.093629006904762 )
( 13.515821676976222 1.336672077773752 -0.0744378634685576 )
( 13.190110917034067 1.4272797246969742 -0.0532568865037102 )
( 12.8225146702357 1.5511309477811082 -0.0300882734434102 )
( 12.434096776708651 1.6859464521857546 -0.0079327310321874 )
( 12.023982911598054 1.829118029457566 0.0144837046972346 )
( 11.628597418278147 1.9651974622495725 0.0334057996159214 )
( 11.252765370137736 2.078622297162237 0.048927557970661 )
( 10.876785700223431 2.174196150222613 0.0630935785237312 )
( 10.496115929250516 2.2576022279014034 0.0750589476070779 )
( 10.0895058821559 2.3633572432569387 0.0862061643557663 )
( 9.663025193343987 2.519577624213281 0.095918890394378 )
( 9.263670226390246 2.774045323727831 0.1021857321959142 )
( 8.800123823864107 3.136743645414694 0.1035087817881035 )
( 15.13168825672232 0.7846082786600673 -0.1522801907026185 )
( 14.876837338140678 0.8448019971921352 -0.1491021397129243 )
( 14.566812866666517 0.9450581862584474 -0.1384691616837785 )
( 14.310443932855936 1.0165161993262968 -0.1261197640217869 )
( 14.035409725915889 1.0873742855685564 -0.1102614865405751 )
( 13.729191212823867 1.170531686235279 -0.0893565934007778 )
( 13.424820196178644 1.2413077412534284 -0.0686411688084574 )
( 13.092684370031131 1.3206013365941025 -0.0471877503211532 )
( 12.713688402611924 1.4335261055722253 -0.0243663213865215 )
( 12.303056755649912 1.5589653404106614 -0.0021126297093853 )
( 11.871034975466172 1.7037279871653093 0.0192314951790122 )
( 11.460281739612691 1.840860911657348 0.0372141739869405 )
( 11.059650333009325 1.9425360713167497 0.0536493812870175 )
( 10.661041210409309 2.027522445093328 0.067908936879928 )
( 10.249127720353329 2.12329663044758 0.0814378858064596 )
( 9.82150227644181 2.237355588387608 0.0930103919085889 )
( 9.38766935316082 2.4124033187529075 0.0989343349217636 )
( 8.920619601872222 2.696663333182069 0.1031536160123124 )
( 8.292732948980998 3.0195345379543985 0.0986439381043689 )
( 15.09576833987976 0.711643971855235 -0.1555454200682962 )
( 14.837471316875504 0.7698201474378935 -0.1505142211664274 )
( 14.525043793245626 0.8617058241071522 -0.1384842367495381 )
( 14.259359941002218 0.9214677305034716 -0.1245561754676445 )
( 13.9761066477287 0.992220375131637 -0.1066697962476941 )
( 13.662249712928746 1.0778985074865692 -0.0852125187207195 )
( 13.344161795767322 1.1402566371919318 -0.0641485326226071 )
( 13.00581103610268 1.2111390404041316 -0.0424034077934528 )
( 12.60759931871921 1.3188459229630844 -0.018717341593695 )
( 12.17873442541346 1.4382136977157238 0.0040124140920687 )
( 11.730241736395278 1.5742953764278838 0.0240499881732852 )
( 11.289901242011608 1.7066804825016284 0.041980429604741 )
( 10.874155701046762 1.81100341706176 0.0589798901950476 )
( 10.467616909138105 1.8919169215062344 0.0715466610667355 )
( 10.027416858368426 1.9890034489958484 0.0841311928420994 )
( 9.568973539176572 2.1100145981645366 0.0935709084185936 )
( 9.119072883009508 2.3001779210610445 0.0990871545432967 )
( 8.554340662749949 2.595544556572337 0.1011891936075677 )
( 7.684673178022121 2.831021860444546 0.0904116116540943 )
( 15.063887885915545 0.6370389728730191 -0.1583640343450274 )
( 14.803471551176244 0.6958512051616847 -0.1512247451310673 )
( 14.486924320048104 0.7837728622694046 -0.1377277177097132 )
( 14.215953508213904 0.8374922631503773 -0.1229538284032216 )
( 13.922408704851057 0.9021703464085854 -0.1030366638560674 )
( 13.595835906567364 0.973279978614794 -0.0804653923073436 )
( 13.267573557041096 1.032034950515171 -0.059742207918915 )
( 12.922772424754836 1.0986098756643978 -0.0387120339625574 )
( 12.498502838680384 1.1998703245921694 -0.0134824224190431 )
( 12.050914373432825 1.3207894457705758 0.0104679032540858 )
( 11.59844510968738 1.4478654852381247 0.0290081140632364 )
( 11.14459269574246 1.577229852708583 0.0468958142923121 )
( 10.71118213487278 1.6858660133785672 0.0638789919335492 )
( 10.276907174409075 1.7592768812207704 0.0761894567799058 )
( 9.82353328154547 1.848097702747305 0.0869004889919452 )
( 9.344535267828585 1.9754565639663195 0.0937137789198503 )
( 8.828122683233032 2.1841110889260964 0.0973812713632477 )
( 8.192777654946427 2.4811767102479 0.0947655827543352 )
( 6.936452121945001 2.545115248535518 0.0789505638217406 )
( 15.034893788680566 0.5700882543909581 -0.1597875232910861 )
( 14.768909254230746 0.6226057202592233 -0.1506544382172629 )
( 14.449036797445594 0.7053795364284652 -0.135949757636372 )
( 14.176326881629317 0.757995472351593 -0.1202892000481151 )
( 13.873593993568017 0.8137614893202789 -0.099812176126791 )
( 13.541029194369829 0.8714937256913935 -0.0774529205858046 )
( 13.202360000949383 0.9328720034127712 -0.0557924190177418 )
( 12.838952497674445 1.0024742482160696 -0.0335405655186491 )
( 12.395704409533174 1.0899417744023276 -0.0081155363963039 )
( 11.925932400869376 1.2046412025123006 0.0159895271910255 )
( 11.46674629738092 1.3223101147437917 0.0343963917122972 )
( 11.013849588237774 1.4351238665857062 0.0505983067489523 )
( 10.564032389094267 1.5365077319891622 0.066337279462252 )
( 10.099526040187246 1.612887631200355 0.0799942324746394 )
( 9.621768289342713 1.697566249330887 0.091962664610769 )
( 9.121078463413768 1.8285650645471536 0.0984180863744971 )
( 8.52324872572415 2.047936654591437 0.0981451635710057 )
( 7.700283818117128 2.2892240894585965 0.0908325190380871 )
( 6.212759277584844 2.223696439665719 0.0723699937792712 )
( 15.012718393840297 0.5022050867902571 -0.1601385263832419 )
( 14.740863244180307 0.5514617931480196 -0.1496997835456806 )
( 14.412959276628248 0.6280218223656538 -0.134057766654354 )
( 14.137757633194738 0.673527306739904 -0.11762333824518 )
( 13.828784889292816 0.7274708704477779 -0.096948483113222 )
( 13.494742816061136 0.7871781088450129 -0.074932763165139 )
( 13.15177044233716 0.8456412388084278 -0.0524864321211711 )
( 12.76683380036458 0.907326788753272 -0.0282210390494101 )
( 12.311659020817268 0.98867642657927 -0.0026700920476302 )
( 11.833142546493724 1.095867157316418 0.0205321876653619 )
( 11.355903984628634 1.204247170673827 0.0392591056987313 )
( 10.879940567734776 1.2972417737117456 0.0549025959247136 )
( 10.411321816177503 1.381601675373763 0.0686227298339469 )
( 9.929036593657203 1.456615106142543 0.081378742797453 )
( 9.43151420201172 1.5448694474576778 0.0929577529687138 )
( 8.889736157073768 1.6934741817760006 0.0978124875505967 )
( 8.230259708784624 1.9053702563810304 0.0978823936589173 )
( 7.171216364212143 2.0355355868387117 0.0884381017846403 )
( 5.59165243401811 1.9141974411368996 0.0662159058905805 )
( 14.995704916924185 0.4316285512040373 -0.1601701673579476 )
( 14.722292463986866 0.4803608477308341 -0.1492551659530737 )
( 14.385243878465946 0.5529831212200844 -0.1328465555459234 )
( 14.10286267951716 0.5910010527326931 -0.1153745632874285 )
( 13.786960251289678 0.6390270051797781 -0.0937490592624306 )
( 13.448311778331156 0.6967787742666273 -0.0706575398478825 )
( 13.10036414436544 0.7411499749719317 -0.0483391475616381 )
( 12.703222316400517 0.7979647253153803 -0.0238488566007494 )
( 12.244947818331529 0.8879497222024164 0.0013865252451678 )
( 11.758957277609786 0.9876918156446548 0.0235109191332855 )
( 11.257781046800131 1.0896247025980126 0.0418582370756893 )
( 10.75898087441762 1.165761392909422 0.0578442769995904 )
( 10.272522053310611 1.2348031476383678 0.0706150446729167 )
( 9.761755455769418 1.3021974427406506 0.0824142551877013 )
( 9.246709387148671 1.389797706164114 0.0907537137933526 )
( 8.64587701988927 1.5470675301728147 0.0930309456007358 )
( 7.911025147891898 1.7354124800401585 0.0934711733170176 )
( 6.730603236178333 1.7832925206977834 0.0841545136742425 )
( 5.022772076677836 1.6032177438543562 0.0609239933197619 )
( 14.980477454250485 0.3706341646944923 -0.1600853573593928 )
( 14.70502846147696 0.413293616967109 -0.1482928155586384 )
( 14.36297404283038 0.4770725768833102 -0.1314139349462285 )
( 14.073291144064736 0.5116772132977547 -0.1133547712048214 )