/*--------------------------------*- C++ -*----------------------------------*\
| =========                 |                                                 |
| \\      /  F ield         | OpenFOAM: The Open Source CFD Toolbox           |
|  \\    /   O peration     | Version:  2112                                  |
|   \\  /    A nd           | Website:  www.openfoam.com                      |
|    \\/     M anipulation  |                                                 |
\*---------------------------------------------------------------------------*/
FoamFile
{
    version     2.0;
    format      ascii;
    arch        "LSB;label=32;scalar=64";
    class       volScalarField;
    location    "0.0055";
    object      k_LES;
}
// * * * * * * * * * * * * * * * * * * * * * * * * * * * * * * * * * * * * * // 
 
dimensions      [0 2 -2 0 0 0 0];
 
internalField   nonuniform List<scalar> 
13597
(
0.1435272257089235
0.1443651260147585
0.145356989810695
0.1478969164165221
0.1500577426764376
0.1496912478158507
0.1482644422480154
0.1464616537677959
0.1441023160132749
0.1413880584547072
0.1384928659462236
0.1357592308725849
0.1330850887996255
0.1305072074468644
0.1281225297359286
0.1262946665387269
0.1254252078237656
0.1236178047385848
0.1212326162508261
0.1447711726277925
0.1454591941360532
0.1460853574625822
0.1493050214853293
0.1505086926808885
0.1502520039572354
0.1494633520335279
0.1486935423880494
0.1478239739541626
0.1466606331504471
0.1456048728212227
0.1453809698500293
0.1450600288322159
0.1445289641295929
0.1447604700347073
0.1452045335017009
0.1457467955819856
0.1455269061312306
0.1446430830123202
0.1453473123977884
0.1457041698414505
0.1458135118403459
0.1478723563431256
0.1478619199009351
0.1472615178557571
0.1466508151248705
0.1465810365674723
0.1467037423147346
0.1478354273406146
0.1492280741040292
0.1514431979282726
0.1535471094117847
0.1546468112912147
0.1558240006000744
0.1561951301275173
0.1558254871351363
0.1545935406480809
0.1526824113083284
0.1442841490112832
0.1443292487068578
0.1437865907518284
0.1448315681827463
0.1447314847406226
0.1444540742835812
0.1446273822824441
0.1463727975752167
0.1483773737919288
0.1514184275715606
0.1540601522662327
0.1561459601813426
0.15818713010742
0.159551402396997
0.1604792590082378
0.1609882495143382
0.1608744298718765
0.1606787954551135
0.1601457482950719
0.1443072358075303
0.1434158575055424
0.1423846168103344
0.1438515355623604
0.1444373797849781
0.1456130929672443
0.1475498285819843
0.150434650267967
0.1536911614278658
0.1571019462343302
0.1608124467946289
0.1644679609519326
0.1678006023870607
0.1708267665581608
0.1732627957765617
0.1751983068438308
0.1765995605950018
0.1780600954849267
0.1791956773175661
0.1457201749418387
0.1443580012063422
0.1427919249303203
0.1448765434590629
0.1462909742158136
0.1485398875042421
0.1520836174694607
0.1558133302615496
0.1603749323118321
0.1658218388909096
0.1716294766862941
0.1772801973162741
0.1821090817926454
0.185274562316786
0.188096249532054
0.1901127469795662
0.1913996532810178
0.1918221346635591
0.1915980936389522
0.1484098978461206
0.1469674847513979
0.1455172383133717
0.1473225103759068
0.1494620316451632
0.1526939779736481
0.1569856084134376
0.1621381508689375
0.1684761561283221
0.1753376696342969
0.1817278568001108
0.1877807914270758
0.1925124947263137
0.1947916175135154
0.195970788385572
0.1963429486838946
0.1954670362362963
0.1933613548129086
0.1903192492925662
0.1524235661530449
0.1501702116033757
0.1485973137817209
0.1505025280393347
0.1532443550751923
0.1572075805812929
0.1628345882473315
0.169273524711983
0.1760341703709778
0.182840936850696
0.1885859865415445
0.1936050594481314
0.1960755540200824
0.1962373448862344
0.1953590720014678
0.1933236476124155
0.1900400739566099
0.185709145476453
0.1807268390464762
0.1563259802749083
0.1531618399666969
0.1515420972509119
0.1534751591297834
0.1564443348557585
0.161691295295194
0.1681682647018811
0.1747081331794245
0.1811812561967854
0.1871533590067977
0.1915875194500207
0.1942626855482914
0.1939965560353816
0.1917751398060358
0.1890562461130523
0.185207541901884
0.1801835640479543
0.1751296067659911
0.1698854947319904
0.1598545542031232
0.1558515504683345
0.1539648832105987
0.1560645143218604
0.1597999984254602
0.1651802702159511
0.1714441773931967
0.1782851446561873
0.1838031906456018
0.1883560346364783
0.1910182563381027
0.1906582082031417
0.1883832246740696
0.1848170578350348
0.1805384789178281
0.1758343336294126
0.170786745442888
0.1661308125059874
0.1618202323569238
0.1626278366738638
0.15760418532924
0.1559245101190023
0.1583787010694736
0.1622855242376184
0.167195926532549
0.173338251154081
0.1796301464217737
0.1840682720471378
0.1870211816218592
0.1872131636412146
0.1849029501117859
0.181365461776074
0.1770170414959033
0.1722662296295752
0.1676996278411751
0.1638949052800004
0.1605366289793396
0.1574821171567998
0.1646346681216511
0.158891788234627
0.157614964683359
0.1600817291746538
0.163661139268194
0.1687508909355104
0.1741610276173429
0.1784534584069528
0.1819677134646598
0.1830710178552834
0.1812982645823388
0.1782652558523832
0.1740760121006893
0.1698925362090132
0.1658699068802809
0.162443033283791
0.1599630090352946
0.1578636256302666
0.1561981677121491
0.1663533514123288
0.1606675779001213
0.1594545411468421
0.1609614465180793
0.1647099611088961
0.1697401345881988
0.174107452600672
0.176952198312617
0.1791550423437123
0.178578128516055
0.1756674411758478
0.1724098213358369
0.1683077782375207
0.1646199056565448
0.1619888696330926
0.1598398295666024
0.1583739446914736
0.157538145501548
0.1575216149954402
0.168549769326631
0.1622867909891472
0.1605586637559433
0.1613992861856993
0.1648707827655237
0.1688503649568438
0.1724597901369019
0.1748150963450495
0.1754770692574689
0.1740084087597942
0.1706053415544981
0.1672088054717326
0.1641496545677021
0.1615672009803115
0.1599580443353558
0.1589979981659577
0.1589205089244972
0.1597619385969405
0.1614906646956921
0.1704646751311272
0.162955964875054
0.1609801807839755
0.1619579241923091
0.1648932662824751
0.1674403086760667
0.1697502504020397
0.1714788217805896
0.1712882285946571
0.1691627905320201
0.1658022430516473
0.1631473172542587
0.1612944008041646
0.1597989423454906
0.1594047047779601
0.1600130425457447
0.1615538263919334
0.1640792200603327
0.1683573300113673
0.1714291434844675
0.163431332425042
0.1613201888476831
0.1621986433873539
0.1642827671674426
0.1663271847614339
0.1677666352290291
0.1680297779222195
0.1671374704822137
0.1642607023603706
0.1617177214204953
0.1607180837579666
0.1596471153137994
0.1591630506237643
0.1602880197731264
0.1624149283137857
0.1657309539222824
0.1709454928164567
0.1796060049183364
0.1721332602139358
0.1641434751041724
0.1615226923706442
0.1621375551380157
0.1632850865420445
0.1646385239491737
0.1656119085638357
0.164905059080047
0.1631357690947979
0.1606102340937468
0.1590480452758117
0.1589402150913705
0.1589189881705124
0.1597393370825222
0.1624618751783857
0.1662124322412671
0.1718190564836541
0.1811892673006712
0.1949665136159556
0.1731321384270688
0.1650964380213043
0.1619490234178558
0.1618902857390222
0.1623296587660214
0.1626019544426261
0.1630806820603662
0.1619170094669566
0.1599110437870321
0.1582311215131059
0.1570168081988675
0.1575425083769991
0.1591409558432302
0.1613398414626273
0.1655461739483101
0.1712937915351667
0.1802496549365491
0.1944460456453437
0.2095405258247245
0.174288649710797
0.1656640454367172
0.1622935077032842
0.1613736637974445
0.1609201713359216
0.160622642246821
0.1604771914411009
0.1588380309668807
0.1571083976585227
0.1560849339121302
0.1557021179003962
0.1571279533771417
0.1600464017457865
0.1638668228312072
0.1695608491026945
0.1778735139392153
0.1913921639144068
0.2101832804523273
0.2211515388648795
0.1750326141269794
0.1659263289693124
0.1622636759093872
0.160342509490204
0.159072516406859
0.1584721485661814
0.1578617140814772
0.1561319654100877
0.1548661908699048
0.1543604841722733
0.1550163932884329
0.157649639014361
0.1616975243224099
0.16685295700262
0.1748075810958812
0.1866953302870636
0.2052303038663528
0.2267183375081565
0.2290408265926877
0.1763831645704728
0.1667223924241868
0.1621524470385235
0.1592070471259489
0.157250077376776
0.1561808433599187
0.155510226519186
0.1541871338968359
0.153219193447067
0.1530575204348708
0.154513229317707
0.1585349533857147
0.1636343537665373
0.1700945811896478
0.1807774178990403
0.1972569410045081
0.2204507473631169
0.2411069619572134
0.2260847908001513
0.1779252924115768
0.1674348853328635
0.1619337935776766
0.1585609497483414
0.1559390778605436
0.1543515550171997
0.1536747504803411
0.1524926858917062
0.1516545468232667
0.1521323550843743
0.1546689523190323
0.1596028732638654
0.1657001997367336
0.1742687975349398
0.187432595247942
0.2085652337415953
0.2352667547512585
0.2520437621093687
0.2078381368739049
0.1784905728147022
0.1674987579760812
0.1615078093665464
0.1576711328208921
0.1544835428088885
0.152880567421168
0.1524025261133372
0.1510416794897935
0.1502857708153436
0.1516489934998497
0.1554901675712082
0.161098194382963
0.1681855619429945
0.1787430324167222
0.1954133251049506
0.2209963953596344
0.2492664123491733
0.2527934715521631
0.1873616634037249
0.1790437223490852
0.167336773549156
0.1609644056247013
0.1567133030532188
0.1529284354151135
0.1514203892664685
0.1509518164457837
0.1496222863960868
0.1493219566404488
0.1515814224086873
0.1563661356587549
0.1629093926254299
0.1713217671620271
0.1836962024724671
0.2039905000909269
0.2336613747252561
0.2616567477516127
0.2451403159028067
0.1684770271995106
0.1799382095780097
0.1673536650778044
0.1601932288961083
0.1554852706584387
0.1513798857790111
0.1497107615543769
0.1489364998373832
0.1481014899463471
0.1488218873825908
0.1516921535047695
0.1571491477586239
0.1647575909777722
0.1746286873784286
0.1900175917677662
0.2134997085085067
0.2457095826904687
0.2700994537454015
0.2366865550254456
0.1488851039153494
0.1806779027644324
0.1673324936006519
0.15927459337457
0.1540198289246109
0.1499928330676407
0.1484760558090465
0.1473542620465699
0.1469114880980656
0.1484932179571202
0.1519113622180535
0.1578740089913733
0.1663633565041571
0.1778009087067716
0.1960094836530753
0.223007500662951
0.2569473142470984
0.2698365683700938
0.2222992568454891
0.1337408080339951
0.1807623352247516
0.1669684143452731
0.1581953015422807
0.1528266011900959
0.1489277836834692
0.1474129452813211
0.1463730171947815
0.1462980733644841
0.1482431589106168
0.1521132852989284
0.1585587235771304
0.1680817493720082
0.1809378375745912
0.2010606695744711
0.2315733089244419
0.2661579086399657
0.2674560289188449
0.2067336789185102
0.1211116905365871
0.1804374238391416
0.1662239895297406
0.1569937100759713
0.1519018517945441
0.1481874249309479
0.1464641845075616
0.1458792814775045
0.1460063941979213
0.1479476108618559
0.1523212224734202
0.1596611688017542
0.1698927728875792
0.1839530004290945
0.2064068254132381
0.2405673342311117
0.2746763389970333
0.269017479490986
0.1963489488003595
0.1109045012894189
0.1798112388182457
0.165654918773694
0.1562391058382929
0.1509493603892381
0.1475592102588224
0.1458201011278797
0.1455521546503382
0.1457795666968739
0.1475845789226935
0.152369468923849
0.1606232486458736
0.1717211189113236
0.1877543689368803
0.2121213583707953
0.2485386401746626
0.2806300278863126
0.266996150873364
0.1871848831357045
0.1039818309471931
0.1789957906047861
0.1648128139335314
0.1554016786453092
0.150070397507865
0.1469060626301384
0.1450898174765845
0.145069205218698
0.1455095541929938
0.1475405879483838
0.1525321177127909
0.1610758216319673
0.1734376613016381
0.1909874130765238
0.2172763425897753
0.2554709223939941
0.2774391025903393
0.2543114776257748
0.1777282711691566
0.099385633254751
0.1780222113547016
0.1635205099918514
0.1543006396121561
0.1491903242892199
0.1460525175216467
0.144465726033687
0.1445293352093897
0.1452270987117961
0.147899474984114
0.1532735960135429
0.1617748924158696
0.1747964873487789
0.1933886600602546
0.2219577769839041
0.2614320002247414
0.2728738956633764
0.2411204565336547
0.1693469164340443
0.096080993040301
0.1768844485963497
0.1626423823112609
0.1536974370738685
0.1485282017623392
0.1455874429889675
0.1442097669264089
0.1442288546521251
0.145227123439461
0.148247295180374
0.1538419983233863
0.1626009912615108
0.1759645641319337
0.195750248871327
0.2274509900924985
0.2665679327973781
0.2734325403842259
0.2360375374685783
0.1622851979239493
0.0925089922543279
0.1754886634381874
0.1617865782728803
0.1528152159222929
0.1478779825196965
0.1453374330696616
0.1438700794777222
0.143794915282536
0.1452530242056385
0.1485234952443887
0.154237680188946
0.1634821838170941
0.1774388870548709
0.197815444122393
0.2319709594520747
0.2714220390079882
0.2755717578144326
0.2339690860529158
0.156590933508439
0.0885162642448384
0.1739157820555027
0.1604426875719362
0.1515456425247508
0.1471045463667826
0.1448979752726022
0.143378144477359
0.143343401366069
0.1451777616322059
0.1488527430337517
0.1546690394207666
0.1644185426129512
0.1789692342845033
0.1997508541292173
0.2354713979514253
0.2759890669107026
0.2775500030502686
0.2326766749581129
0.153073268777398
0.0858250478881144
0.1724204688184188
0.1589626306915973
0.1505813338907482
0.1464259367623623
0.1445117559319374
0.14311125654161
0.1431818855489211
0.1450116209748827
0.1488808230103798
0.154853806149769
0.1649161504393652
0.1798417082065829
0.2014090624622186
0.238555706106685
0.2794105645830372
0.2782395198992003
0.2306257670084904
0.1503641214734865
0.0840084509683491
0.1711477031152382
0.1577922055745843
0.1498856041194956
0.1459452765937078
0.1441376248439661
0.1428358939689375
0.142994743824665
0.1448370314183869
0.1487725056468676
0.1548751798660916
0.1651732647098288
0.1803601305879867
0.2029146730985275
0.2405063602628087
0.2812858588126243
0.2788745414286284
0.2279942450343113
0.146835658228333
0.0819007795671609
0.1699865961121313
0.1565997321518848
0.1492267246019717
0.1455688253218363
0.1437690681018681
0.1426832366927719
0.143076172377774
0.1450381606614761
0.148845633580538
0.1549322006601425
0.1653170050693942
0.1809655279456042
0.2043224675242251
0.2424328612807105
0.2822855023324006
0.2779055314405321
0.2263383912537298
0.14522677738479
0.0802537308200294
0.1685251451827643
0.1552468420439494
0.1485270136562338
0.1453288769119487
0.1437289646543444
0.1427090247207668
0.1432783780059789
0.1452905508543945
0.1491142612467869
0.1550367664207672
0.1655260680023842
0.181767172334598
0.2060648886155754
0.2445292142858599
0.2816594604649085
0.2759191294200986
0.224407114714849
0.1444149654307022
0.0792718946731949
0.1667520519653738
0.1538411831198457
0.1477770900360275
0.1450893940342533
0.1438180638916994
0.1428682667905326
0.1434174941857781
0.1451789341785125
0.1493011366981022
0.1552271964724285
0.1656330038940791
0.1822831179213163
0.2079596891846193
0.2468504920055272
0.2803024851387897
0.2733074527068914
0.221504688608427
0.1425182054723844
0.0785533023185487
0.165025365698088
0.1526869191345011
0.1471799366092983
0.1447320617528735
0.1437967633531212
0.1430385317071685
0.143580192451043
0.1450752337860107
0.1491365201896782
0.1552723120540134
0.1655837102185272
0.1822556851831549
0.2088444222075473
0.2485953725018358
0.2795716270785154
0.270098462622223
0.2192799964340339
0.141323210802856
0.0781535612963161
0.1636138369100433
0.1520373905259709
0.1468260225451209
0.1445186295834024
0.1438575400420536
0.1431600899254669
0.1437150751976194
0.1450342970999672
0.1488712064924708
0.1553499176947625
0.1655931362521411
0.1822936295103021
0.2094187809680317
0.2490731890839667
0.2777443820327778
0.2661346757026221
0.2166438471875845
0.1399868943162473
0.0778717378594836
0.1622921003869196
0.151373672241401
0.1464761583977265
0.1442931321971676
0.1437470680909902
0.1433576065664364
0.1439028244138789
0.1450375345378128
0.1489369097248945
0.1556600861183673
0.1656763225344809
0.1824355072269125
0.2097413841688876
0.2485113622591393
0.2758216025342013
0.2634769417438236
0.2139784571953514
0.1378751197453475
0.0772095485611438
0.1607305131383661
0.1504431639967051
0.1459783274098324
0.1440055969210548
0.1435591303099666
0.1434632156326017
0.1439503300087166
0.1451439454481558
0.1489829157527609
0.1555903033036759
0.1655703935821144
0.1821857980250148
0.2093964650865746
0.2485004821658273
0.2757972958648298
0.2624805484218558
0.2119430913313424
0.1360432853139365
0.0761360356883642
0.159379720113703
0.1495291787221633
0.1453977908370868
0.1437735557329016
0.1434878576414767
0.1436374823929883
0.144080176208645
0.1453311914572105
0.148954203313478
0.1555415024124863
0.1654867179195412
0.1821272724312166
0.2093620429534596
0.2486474805673927
0.2742646543862407
0.2594355168060436
0.2096119851402043
0.1347940408119661
0.075486349315582
0.1648676978405919
0.1587920333389298
0.1474486444453291
0.1344304276824179
0.1248755282682602
0.1166834804892841
0.1094352064298262
0.1036956109353967
0.0997218026062581
0.0973177190553273
0.0964877121504854
0.0975167497478132
0.0998281394134386
0.103677984729442
0.1088892369200513
0.1147408088952799
0.1219686420922496
0.1299525425689777
0.1380142496022399
0.1541406573588791
0.1455886141931165
0.1310184069052235
0.1179116306012561
0.1098061530617834
0.1037114269712971
0.0998846772576298
0.0979152061018452
0.0977515635937345
0.0995877755695582
0.1038818344255871
0.110372316393116
0.1180942778403431
0.1266169149350068
0.1356575808512315
0.1441624063783305
0.1525846409849256
0.1608377080921873
0.1678173869177398
0.1442418226440338
0.1338340613857296
0.118134628103626
0.1074557456759333
0.1025985697799179
0.1004840728441208
0.1013581901498823
0.1047792383445686
0.1102849739747597
0.1181537206368363
0.1284242196222086
0.1396631883852859
0.1512011880094019
0.1621338926960166
0.1718470704794535
0.1799447505933656
0.1859691856433011
0.1904818983754654
0.1938058698524011
0.1355703004105594
0.1240854010558857
0.10888208280993
0.1013405818977182
0.0998864603423646
0.1022376349571796
0.1083336555129487
0.1172004288405374
0.127428971006839
0.1389257359204342
0.1520238170830526
0.1646434824686643
0.1763170492279959
0.1860948841920589
0.1928079773705877
0.197696596260735
0.2008785231358064
0.2030823468999756
0.2050479690301206
0.1273528891812458
0.1148413632366005
0.1021461208898947
0.0985219296318771
0.1011127085405376
0.1082733521838456
0.1193615463955664
0.132585172208226
0.1462954736190239
0.1602477536181787
0.173807514098184
0.1854442560737746
0.1951222268010901
0.2023789400036656
0.2067568732286893
0.2096564925479393
0.2114793710375511
0.21211434463631
0.211805363292286
0.1186035723811697
0.1066235942837213
0.0974385899545748
0.0990868939581358
0.107157332941713
0.1191893366306217
0.1340670093008883
0.1505841742314972
0.1662455059672473
0.1805189342174579
0.192667422616049
0.2020279055502425
0.208906936240652
0.2128246877905565
0.2145998411241731
0.2150429671957024
0.2140015432141116
0.211937729952223
0.2087189490491242
0.1119552397176481
0.1012153952234296
0.0962096077864468
0.1043485918342387
0.1175736027488963
0.1335933384337862
0.1512764832765167
0.1686724463367524
0.1840736664602402
0.1963931770815738
0.2057320484542831
0.2118871882301928
0.2149815208303516
0.2155868083362195
0.214242844024986
0.211603670352083
0.2075556844337957
0.2025749411111239
0.196391627172175
0.1071653260693195
0.0982249832523305
0.0996449653156492
0.1133117367618515
0.1299099760422291
0.1487634002477879
0.1678721045592896
0.1840570137814668
0.1970960766227008
0.2063949527581248
0.2124311357331008
0.214760370535024
0.2135191469302667
0.2108165536865182
0.206755775209183
0.2015080636971128
0.195035539302207
0.1874152426953233
0.1788331993911029
0.1043965912584745
0.0992025952955135
0.1064177952406923
0.1243521332233202
0.1434985042145803
0.1630658257214764
0.1814607832987341
0.1961040192053947
0.2058414030884693
0.2111299047929201
0.2131627475123132
0.2118021935892596
0.207519244752321
0.2019536092753412
0.1954281644703258
0.1879944976944551
0.1796504428480646
0.170529242644143
0.1608075462546054
0.10327861327707
0.1022033781565075
0.1150169930226743
0.1359791209606894
0.1562022455453793
0.175332118618014
0.1914912398254104
0.2032238581947186
0.2099098390001141
0.2118533619192153
0.2099130337614633
0.2049664999925371
0.1986023099493142
0.19117526078115
0.1827152632808818
0.1740375898502596
0.1647491693433081
0.1550794040764848
0.1450387205721105
0.1035994488103068
0.1070756023483477
0.1243667390670755
0.1467783187899374
0.1670845801866761
0.1848299193573315
0.1976538522764873
0.2058256018770692
0.2096974814751601
0.208807985005885
0.2037152724536004
0.1967096212445936
0.1884734548933671
0.1794770589706993
0.1704081956063109
0.1612599669914369
0.1518990065336327
0.1422979475726249
0.132766510825417
0.1060070290442427
0.1130566587808915
0.1328165157509162
0.1551964513892169
0.174682730523742
0.1902888235109028
0.2001959010565192
0.2058141493267594
0.2067446568780245
0.2031257352897807
0.1960473722377925
0.1876968466397439
0.1783618246412894
0.1686919966644029
0.1595423561288058
0.150406730823974
0.1414495852234831
0.1326252395827757
0.1243167694182633
0.1093302227436041
0.1187337419961387
0.1405476086284267
0.1620837467216651
0.1797929872353506
0.1929412673473429
0.2004467717712843
0.2033492244125311
0.2017095750992099
0.1963796353841666
0.1882742562025509
0.1788288089046429
0.1691607610290585
0.1598744676855605
0.1508212768323029
0.1420164600831886
0.1340417814895794
0.1265616723095628
0.1196238993041394
0.1127679371674759
0.1242097141171807
0.1467632537623234
0.1670880611954019
0.1827869167748984
0.1934490680617116
0.1986648366756112
0.1992245427211184
0.1960461003970063
0.1893613922308213
0.1805445684632262
0.1708889292566038
0.1613536159327271
0.152551777496523
0.1439998631559516
0.1361995714008105
0.1295462266048498
0.1236353695411584
0.118305851165473
0.1162882321109664
0.1286992582875341
0.1508309803451674
0.1695655717384494
0.1833661950588122
0.1921858804109135
0.1957786064998838
0.1946523927047331
0.1902754384287758
0.1828807405831581
0.1739017413276986
0.1642995226574977
0.1550222239706916
0.1467128524255255
0.1392087522718688
0.1327671928265872
0.1276393562253768
0.1234120666047354
0.1204217610983544
0.1194869517990126
0.1321400192448543
0.1538936378039869
0.1704815389558611
0.1825754175707406
0.1899170275557681
0.1919603804478409
0.1901722878913889
0.1849346241160217
0.1771655933977958
0.1684190817855197
0.1588975736248065
0.1500456681671123
0.1425233076042009
0.1363876940711837
0.1315183397910983
0.1279427528115165
0.1258948570485359
0.1263907014309228
0.1217909975183177
0.1344793781339022
0.1558595968881148
0.1703445099872365
0.1812508881321497
0.1871585228613591
0.1879312681323099
0.1855501760415634
0.1797756685801972
0.1722840255530301
0.1635716539458616
0.154343794551979
0.14639186133186
0.1400307646510129
0.1351509303669217
0.1320001689406427
0.1303801824235653
0.1314279622786777
0.1350645594400399
0.1231313294634053
0.1358421314905371
0.1569124177710103
0.1698473996228076
0.1791741216681817
0.1840760643326889
0.1845127164820205
0.1810509436176554
0.1746093065404829
0.1677685349934561
0.1592897631032012
0.1507866469849286
0.1438661603164397
0.138917682475259
0.1355162587121653
0.1341359156247112
0.1353822554990148
0.1402103133571179
0.1443522604894462
0.1241760279560947
0.1366159283507356
0.1566333727687272
0.1686789602060552
0.1767040353591507
0.1804300501143979
0.1806932571443049
0.1768340267816316
0.1704988892953513
0.1638463779240199
0.1557375604485376
0.1482991846156976
0.1425697155064198
0.1389345924714738
0.1370579343861544
0.1379837142145699
0.1428800857724226
0.1508146157904337
0.1511950361404346
0.125135310878689
0.1371056834431599
0.1554984290763776
0.1668589597862209
0.174218330750626
0.1769619731311612
0.1765436468874809
0.1725832917470687
0.166953022597986
0.1603565485387836
0.1528754223387846
0.1468073675391123
0.1425247054625309
0.1401053050387379
0.1398836009357819
0.1436228453687831
0.1527133576439254
0.1613174311757752
0.1549070988710353
0.1253950334375434
0.1369100159674798
0.1543733856365397
0.1649506878498074
0.1715859242339955
0.1735788760679968
0.1726932325762738
0.1692040253505322
0.1638764974484277
0.1573834256326832
0.150727182567009
0.1456791659972997
0.1428842416711452
0.1422285704367572
0.1446460313847555
0.151620867035916
0.1640156772857932
0.1716906284828845
0.1535462856931794
0.1252422530395877
0.1362812232014883
0.1536050662216685
0.1632520557777601
0.1688814553654589
0.1707154551059186
0.1695519758958292
0.1664569074754747
0.1611950235957819
0.1551032223027304
0.1494780063745284
0.1453357733400426
0.1437365409552611
0.1451446284215395
0.1502316185508273
0.1613151297352562
0.1771728735980541
0.182916349650464
0.1427715611643017
0.1254527728088166
0.1355109646042433
0.1522127924291332
0.1611751639472053
0.1659653846430552
0.1678780221909637
0.1667782516206032
0.1633724418087683
0.1585485710799355
0.1532233644917716
0.1485579832176715
0.1458391806445413
0.1456950240908008
0.1489805126618198
0.157354467687473
0.1732925953177347
0.1900797433395799
0.1839178527172193
0.1294842123512153
0.1258771543214298
0.134836969037599
0.1504221314981123
0.158990317037823
0.1635037746092924
0.1649687299301692
0.1638540418827858
0.1605635542609899
0.1562628972358762
0.1519283650679632
0.1481745359130864
0.1467874537402725
0.1482759874794704
0.1535959272932541
0.1659735726205703
0.1859552787591396
0.2009282927440649
0.1789301114738979
0.1193813458339041
0.1264307241156254
0.1345336162039341
0.1493100004260808
0.1573179957281738
0.1614812263603308
0.1625888157864487
0.161358650631272
0.1583279701806981
0.154701611455503
0.151239575546428
0.1485628428214607
0.1482682692389725
0.1512492595673402
0.1596031065244648
0.1758528019764179
0.1971566960595371
0.2089086095672782
0.1776251387213243
0.109961967409817
0.1270698086757203
0.1343728765680731
0.1485175372221042
0.155802024306151
0.159429665710757
0.1603551955872834
0.1592837209001212
0.1565017914203909
0.1535616790819794
0.1507517111038116
0.1490880352313593
0.1500168286090278
0.1543935263900813
0.1656339123670757
0.1852743371946687
0.2072843768957532
0.2095206171815573
0.1688618439056589
0.1006628464531125
0.128257991653911
0.1344794329028963
0.1474326318888565
0.1540239830698493
0.1575346377522257
0.1583090202633744
0.1573664449413357
0.1551310446394719
0.1526976513565008
0.1503100489522289
0.1496791839377857
0.1522102783050159
0.1583215030728937
0.1716135613780612
0.193468443432609
0.2168428650550968
0.211278402989503
0.1603046371646056
0.0928264548290533
0.1298661987005913
0.1346737471988401
0.1461969067147007
0.1522518832079658
0.1555552951939457
0.1564756269608979
0.1555626108402769
0.1538924678885865
0.1520006748836368
0.1499572034125443
0.1504930002953318
0.1543748557603646
0.1625969708111794
0.1786331649405099
0.2032781045336299
0.2279077094024058
0.2171399726974539
0.1573626478340449
0.0887328078385072
0.1312455814422843
0.1349776101404438
0.1454338087429575
0.1509292407351966
0.1537019216514614
0.1549583052998466
0.154181435598546
0.1527778449792887
0.1509740986171998
0.1494872546455255
0.1510737179081704
0.1561444609002419
0.1667498752110052
0.1850975493036101
0.2119494898355709
0.2343055638118703
0.2176723180741526
0.1541958347109198
0.0866104355925013
0.1324547766214968
0.1355961915371741
0.1449784562909386
0.1498520470608302
0.1522932784657055
0.1534955755981607
0.1529502645892489
0.1518148714565787
0.150035461938933
0.1491949415061546
0.1518310705197024
0.1584910278499585
0.1713698440265882
0.1909037739932783
0.2192906675297675
0.2350409607991372
0.2101622093583462
0.1475924456871815
0.0837917418832902
0.133797995607993
0.1363309774585608
0.1443171216729463
0.1485295730888847
0.1507990465292544
0.1517578353536644
0.1515623396236635
0.1508399073486765
0.1496272221656341
0.1493889594160667
0.1528743824990764
0.1607691880987529
0.174871366151442
0.1968237192437046
0.2278880036764497
0.2364954759298353
0.2031644209469942
0.1409190385790649
0.0810635481886559
0.1355163444376178
0.1370818089380032
0.1438889917338418
0.1474470905768188
0.1495625635137421
0.1503046093045899
0.1502877613065907
0.1499545041899338
0.1494553500481132
0.1499423990776193
0.1541359099495091
0.162819391149086
0.1778478594263069
0.203120496564291
0.2364304134277109
0.2407332671068552
0.2024609795668864
0.1375163173525566
0.0790297814245836
0.1377532419728563
0.1380233447805854
0.1440680741973156
0.1467323293624074
0.1483789137073584
0.1492460132599442
0.1493058494697983
0.1492363720701609
0.1492948458554708
0.150536666574093
0.1554726179437058
0.1653039973906155
0.1817867643859676
0.2089882359482898
0.2430225003730068
0.2461294809607138
0.2036589733251446
0.1349350477683757
0.077936915317008
0.1401259825203264
0.1389781695504102
0.1439988700497102
0.1460864762219276
0.1473757636998626
0.1485742039619882
0.1487292780972822
0.1485883560631016
0.1490160847177191
0.1510857780680695
0.1564688839506335
0.1675099729207083
0.1852519441483933
0.2138692334919293
0.247794217399861
0.2497294665388103
0.205575154567874
0.133384071783493
0.076683969900751
0.142358721744803
0.1399285597067596
0.1437208504649806
0.1455973184891555
0.1467815611486953
0.1478264187258929
0.1481759905432199
0.1481270695334438
0.1488984655235742
0.1519107367105168
0.1577861014643201
0.1696622862518505
0.1878162912881658
0.2180535218121591
0.2524131582820855
0.2531328589746737
0.2081250118187915
0.1330537141082635
0.0756112269276023
0.1442741921795154
0.1408770678557779
0.1437039197131648
0.145352261898427
0.1460812481094224
0.1467521228450226
0.1475391871060542
0.1477486668386567
0.1489555449939093
0.1525503960847645
0.1591778122572339
0.1716364759470673
0.1900529515576748
0.2222457110047561
0.257903701182452
0.2564268131779782
0.2087100595136528
0.1330246727599935
0.075416259173031
0.1461042481288597
0.141893391317508
0.1437004790660705
0.1452180317352265
0.1454302127288548
0.1458753092170407
0.1468085341345814
0.1472195533911103
0.1487889509251296
0.1528820249668765
0.1602030787823523
0.1734659088006086
0.1929791387795715
0.2262202588206278
0.2619487969248456
0.2592126035156817
0.2097981111674091
0.1335872440989499
0.0757302416821381