/*--------------------------------*- C++ -*----------------------------------*\
| =========                 |                                                 |
| \\      /  F ield         | OpenFOAM: The Open Source CFD Toolbox           |
|  \\    /   O peration     | Version:  2112                                  |
|   \\  /    A nd           | Website:  www.openfoam.com                      |
|    \\/     M anipulation  |                                                 |
\*---------------------------------------------------------------------------*/
FoamFile
{
    version     2.0;
    format      ascii;
    arch        "LSB;label=32;scalar=64";
    class       volVectorField;
    location    "0.0055";
    object      U_LES;
}
// * * * * * * * * * * * * * * * * * * * * * * * * * * * * * * * * * * * * * // 
 
dimensions      [0 1 -1 0 0 0 0];
 
internalField   nonuniform List<vector> 
13597
(
( 17.498533092127943 1.6999906330260304 0.0634417950433469 )
( 17.500871525994086 1.7441731385173915 0.0658927785064912 )
( 17.51560943443826 1.8346866434959377 0.06834151045606 )
( 17.540317920190386 1.9508426029991168 0.0698819601807677 )
( 17.562365726447933 2.0509906556347066 0.0694192075498906 )
( 17.576949330527118 2.1364746397041112 0.0678483934216948 )
( 17.594280583418787 2.2218049332775456 0.0649004449498584 )
( 17.61473423162865 2.3132645390650937 0.0600293849662107 )
( 17.638285748840044 2.4064749089664 0.0533992496965966 )
( 17.663345535799262 2.5007227055153933 0.0452689152443881 )
( 17.690267645785905 2.6054292733459032 0.0358203424971552 )
( 17.72304237175087 2.7101687083149475 0.0254205582507391 )
( 17.758730575671507 2.813455772249252 0.0149683828137743 )
( 17.795463580894282 2.922690408548475 0.0042237602635589 )
( 17.83330211627576 3.035315122920633 -0.0069097568232114 )
( 17.873422945900476 3.1461487807588027 -0.017207312271917 )
( 17.916581412999054 3.2509540904781398 -0.0262811922161139 )
( 17.961533399431772 3.3555340290644997 -0.0339414394146796 )
( 18.007712614483612 3.462512699969995 -0.0406660634573618 )
( 17.372264486894355 1.7346946716367633 0.0844069675858159 )
( 17.354369634068576 1.7905082131322116 0.0879562941456646 )
( 17.342960065734946 1.9083736800876352 0.0902232085715315 )
( 17.334661662009214 2.044066819799188 0.0897265433639678 )
( 17.325854867230998 2.1523019544787467 0.0859842848431913 )
( 17.316063253027323 2.255081906133089 0.0799587725367595 )
( 17.311712012234132 2.3601933843332685 0.0714514888653899 )
( 17.308452437375504 2.471668606478584 0.0603691307772457 )
( 17.3101759022214 2.5860967790220872 0.0482920339789757 )
( 17.31321078969412 2.701491450717528 0.0354452472884597 )
( 17.31712939970701 2.829583956184244 0.0203636810814818 )
( 17.32280426365526 2.9652380113049737 0.0039009401848013 )
( 17.327257272020457 3.1016512860678382 -0.0110269105442633 )
( 17.33484466878197 3.2411208765776216 -0.0244196845172468 )
( 17.34470895885264 3.3761390599687613 -0.0364249008217766 )
( 17.355668411617643 3.502998724545268 -0.0467881594923543 )
( 17.36654454759241 3.6184381834051456 -0.0550848116231111 )
( 17.376872986156478 3.734244240301933 -0.0612079488029355 )
( 17.39150258735477 3.847555534531161 -0.0658942144050899 )
( 17.23217044637279 1.7563670299071052 0.0972719927404146 )
( 17.18871205599011 1.8208426095276204 0.1003663320293666 )
( 17.14894063279279 1.958330532672333 0.0993663787400283 )
( 17.109754056783746 2.1097357379608823 0.0929895852076143 )
( 17.07296822733711 2.2266610069578725 0.0834589625946142 )
( 17.043845335769742 2.3459297338404697 0.0718510813600265 )
( 17.020069333631785 2.47043691164817 0.0569254916243861 )
( 16.991254204233293 2.596846805637087 0.0398031855063418 )
( 16.967692472698882 2.7296278842416286 0.0223454045175419 )
( 16.94767648116785 2.8730151349496444 0.0041500125644081 )
( 16.925378275904336 3.0233726889863832 -0.0132481339578144 )
( 16.903794025992493 3.18217195713368 -0.0299929603316636 )
( 16.883127014359065 3.343693491135224 -0.0448620158859891 )
( 16.86355557999738 3.4968608977336784 -0.0567053059444339 )
( 16.84599136147271 3.634515614676864 -0.0654630436223066 )
( 16.831006384661382 3.75544138999594 -0.0718669760547224 )
( 16.813309422517086 3.862451703604208 -0.0764184772987867 )
( 16.794260648806752 3.9674593354802896 -0.0793406139584214 )
( 16.7826678005908 4.074789334446494 -0.0815719239275975 )
( 17.078878813271192 1.7662476001082297 0.1046996324885947 )
( 17.011722948597544 1.8396119701539384 0.1053662797158998 )
( 16.948835331484464 1.9895438037665667 0.0986189083261034 )
( 16.884207688683322 2.152364326094087 0.0851299508521255 )
( 16.82128819417268 2.2804845536266587 0.0692744076474525 )
( 16.768278354564444 2.410022262934455 0.0516927088183798 )
( 16.7162389865379 2.5494509054006897 0.0315097785676052 )
( 16.660682999550648 2.691242223567384 0.0105082398982921 )
( 16.612970067266655 2.838754481083002 -0.0093657784591109 )
( 16.568887961502956 2.9966218712610804 -0.0286575127307392 )
( 16.51945867909843 3.1618225929957893 -0.0460340699964238 )
( 16.474819383803617 3.330263975349572 -0.0600154684923903 )
( 16.43345455131981 3.4950390291351963 -0.0713625790710865 )
( 16.389280571860695 3.6496542574013873 -0.0801271615818817 )
( 16.345471591763534 3.7801450470710343 -0.0858382655213782 )
( 16.304290280030795 3.89046533163287 -0.0899611849743637 )
( 16.264180672903386 3.988851137979454 -0.0927609481762779 )
( 16.221188900593685 4.086666763067082 -0.0953248365985247 )
( 16.181201730479103 4.195083675369372 -0.0978549181941842 )
( 16.924846403405468 1.7665427873609794 0.1080124858960697 )
( 16.841893342732558 1.8513458043514663 0.1044326591250911 )
( 16.7562513660795 2.013494275164885 0.0915729895009062 )
( 16.666045999095928 2.181242325585307 0.0715665000633141 )
( 16.58114383833208 2.316504788391528 0.050251848507766 )
( 16.503407845343926 2.4530747880968384 0.0276287102712493 )
( 16.42435100126806 2.6020474599631678 0.0043141374541135 )
( 16.34577415128952 2.7535550476628754 -0.0178841519497262 )
( 16.273174096542526 2.904759989000726 -0.0381428813871358 )
( 16.200902793356047 3.065670592902644 -0.0559548952325975 )
( 16.124745015027866 3.239178940570753 -0.0718250648497069 )
( 16.05224886879705 3.412582893642045 -0.0840411529699307 )
( 15.981806503690866 3.576651664645614 -0.0930436976777457 )
( 15.909272294333247 3.7274043699898662 -0.1003122476529607 )
( 15.837569025126957 3.848837563029313 -0.1054551065638465 )
( 15.767982939155196 3.95667468253684 -0.1097812577689071 )
( 15.702095869095032 4.058856486961724 -0.1132090756544788 )
( 15.637211109383658 4.160147567355497 -0.116607963194328 )
( 15.572587387802974 4.27458173485214 -0.1200673039691443 )
( 16.77822668709849 1.7576117775782991 0.1086611283832167 )
( 16.67851160035707 1.852886068319775 0.1008258361711006 )
( 16.567890930917187 2.028794368604068 0.0808778470855205 )
( 16.456496617199274 2.199822458200168 0.0548299147060883 )
( 16.354281144023215 2.3385453447344617 0.0299837723908138 )
( 16.257242244045614 2.480644141902241 0.0044761937926372 )
( 16.158623751077315 2.629868133822779 -0.0202182516353119 )
( 16.056928338337773 2.781231129022073 -0.0422039517811599 )
( 15.952603291007105 2.9336951189080667 -0.0622461520799849 )
( 15.847851325106916 3.1019065827192063 -0.0797410390082033 )
( 15.745951778061276 3.277118220501216 -0.0938193521076426 )
( 15.642409719779996 3.4482529220140634 -0.1050129339894683 )
( 15.543434584883704 3.6124816819361607 -0.1134676373614498 )
( 15.447814352258431 3.759118717180659 -0.1197438584463098 )
( 15.351859279487773 3.879807067956256 -0.1251407092875839 )
( 15.263954708653255 3.9858168442601407 -0.1296650200060863 )
( 15.178209066878804 4.0883078424826245 -0.1335026589853447 )
( 15.09265002776034 4.192163054995828 -0.1368133633300149 )
( 15.008408776013267 4.3110262555928704 -0.1397359608354161 )
( 16.63196218566358 1.7416470780362114 0.1084424284992644 )
( 16.51747395892499 1.8482789236587056 0.0959764657879236 )
( 16.38892646296258 2.0333952931697685 0.0691788973398646 )
( 16.25966132697147 2.2038699082435644 0.0376858401203202 )
( 16.140162134209017 2.3426227461002207 0.00926765730701 )
( 16.02101644561827 2.4837509871835475 -0.0180646202237828 )
( 15.899556440117887 2.6318795643005983 -0.0435194576290491 )
( 15.77487032722528 2.783426627509001 -0.0650023331958885 )
( 15.643400751694289 2.9353854948883367 -0.0837537285438477 )
( 15.516738382576088 3.1033873575579785 -0.0993387301154776 )
( 15.38964065840319 3.279013197206233 -0.1120435767429525 )
( 15.257635722329097 3.451897105443177 -0.1227698362205922 )
( 15.134961881768213 3.613271721620002 -0.1303334472660205 )
( 15.017892839381837 3.755871098212016 -0.1355562544994144 )
( 14.901426041766614 3.8802992258490665 -0.1399236730357076 )
( 14.79334331231592 3.984713416663399 -0.1431987857356388 )
( 14.689829340016132 4.086047278097557 -0.1456564881019477 )
( 14.5847939752045 4.196200080434306 -0.1476573137679735 )
( 14.481350461191475 4.320501631372301 -0.1490114589313367 )
( 16.496016353533477 1.7220940630324115 0.1075503028086952 )
( 16.368157723421884 1.8340791385247863 0.0891171891979881 )
( 16.223065536843656 2.021519604829398 0.0556649743308246 )
( 16.077395694222044 2.190084037532701 0.0204695621375169 )
( 15.93806587325428 2.3285268356305244 -0.0107621002328146 )
( 15.796902450579331 2.470061992827599 -0.0389643398125758 )
( 15.652162068902342 2.617756225163504 -0.0642675150895663 )
( 15.50664817981511 2.764309599904637 -0.0846422073406624 )
( 15.351235400716156 2.914386691547526 -0.1019336260376874 )
( 15.201675807540257 3.08439682243175 -0.1158667009791823 )
( 15.04898683115088 3.260874679947757 -0.1266738686711172 )
( 14.8959236295459 3.436233522166738 -0.1355803892744344 )
( 14.751859451826746 3.5974634877465843 -0.1412438429024761 )
( 14.6101745968115 3.734380057766701 -0.1449023819533536 )
( 14.47929974386536 3.853177538047928 -0.1475271095467622 )
( 14.352576735073615 3.9591542753140874 -0.1489930761163185 )
( 14.229538192892576 4.065928371479752 -0.1496672688935326 )
( 14.10735005205338 4.184199108707328 -0.1498603369054083 )
( 13.98682604510118 4.315833510589891 -0.1491680557981041 )
( 16.37081035682983 1.6934891077898966 0.1048244515081971 )
( 16.22774180821468 1.804901554292913 0.080221123951452 )
( 16.06486495469549 1.9930419587347388 0.0407770022172807 )
( 15.904579217710952 2.158614744042061 0.0032258245265875 )
( 15.74514268846716 2.299188732716814 -0.0288425328448472 )
( 15.5862962867514 2.438271366118073 -0.0572102017694558 )
( 15.423183992070364 2.5799078587148325 -0.0810754633338914 )
( 15.258469172693008 2.728590656258174 -0.099866739120424 )
( 15.085405448932484 2.882254683017126 -0.1154660030725936 )
( 14.905136025619262 3.049722653607782 -0.1276947637571329 )
( 14.72824596613068 3.2268510977828497 -0.1362817821205694 )
( 14.559105317610996 3.40143680781349 -0.1423529954332927 )
( 14.39062861476395 3.562342786877281 -0.1458719674452126 )
( 14.229146657096264 3.699069643455317 -0.147769063233694 )
( 14.084937305928095 3.815153709946853 -0.1486964466753356 )
( 13.940685054419484 3.9249965465258234 -0.1485166895071078 )
( 13.79789889510288 4.035612739831872 -0.1473536882133867 )
( 13.656637288766085 4.158161965653245 -0.1453482518688753 )
( 13.515091229631288 4.296776074946805 -0.1426381628533227 )
( 16.250323096499965 1.662284240123004 0.099487681059327 )
( 16.093690724527665 1.7791594202828829 0.0683816665076105 )
( 15.91552887944876 1.9650408405394384 0.025223687542729 )
( 15.739832321022895 2.12100576411415 -0.0129091840467762 )
( 15.56448254839831 2.260639843225896 -0.0457494567084101 )
( 15.389543533278808 2.3922689292859154 -0.0726138622005453 )
( 15.20596501980856 2.5255740192788565 -0.0942130551051164 )
( 15.0164360619606 2.673862209673393 -0.1115764741861982 )
( 14.827315452813387 2.8268099214855984 -0.1245489064907198 )
( 14.628541179805293 2.994131956097732 -0.1342869555073746 )
( 14.432210648461272 3.1771978894494195 -0.1409732268040255 )
( 14.244301620528557 3.355480916184546 -0.1447885698680482 )
( 14.058079464920729 3.5131835126244395 -0.1463515961714035 )
( 13.883257071167014 3.650847948311121 -0.1463964766488409 )
( 13.718807327077812 3.7687289393516656 -0.1451132211827831 )
( 13.553487389151275 3.8787711239114815 -0.1429081591286532 )
( 13.387457645218714 3.9909198741137577 -0.140007522679319 )
( 13.22449470289208 4.116028375813573 -0.13672274667088 )
( 13.063060421437736 4.262204774443678 -0.1338345311814514 )
( 16.140069793060096 1.6301803948032758 0.0911211505024508 )
( 15.973696337997088 1.7510810113689792 0.0550372892800776 )
( 15.775637608272351 1.9315263851896676 0.0101970042435199 )
( 15.5879771105875 2.076435298795142 -0.0272113139483652 )
( 15.398788995450278 2.208722330337847 -0.0594060210645834 )
( 15.2041169256513 2.335773169559625 -0.084276972448009 )
( 15.002600370846892 2.462024550774604 -0.104205149195451 )
( 14.7968789090473 2.602355918947739 -0.1196229544555897 )
( 14.58851636418008 2.759122265739393 -0.129937459535236 )
( 14.375321893910796 2.929801210187819 -0.1372513648399961 )
( 14.160738696016889 3.1135235302102897 -0.141707761095095 )
( 13.948565504050253 3.298211619181196 -0.1432383709888045 )
( 13.750212953387637 3.454850496609762 -0.1429888923317583 )
( 13.561175497676436 3.593042072183791 -0.1412832459397597 )
( 13.371666683209792 3.713212858741415 -0.1381359139597464 )
( 13.181521522154023 3.822632184879879 -0.1346779607071075 )
( 12.993529830658156 3.937451753061637 -0.1315347385561627 )
( 12.813139525468664 4.06737000537612 -0.1291428938580926 )
( 12.631952286596956 4.222167709490438 -0.1271708989049695 )
( 16.034965368224682 1.592475862297937 0.0810817535908726 )
( 15.856637264484885 1.7146620808242032 0.0415478637213539 )
( 15.641542614484488 1.8901788815264868 -0.0046728403035725 )
( 15.442840203863332 2.0233040648578684 -0.0402938510203134 )
( 15.239457249586636 2.144428399896966 -0.0702541990054418 )
( 15.027497965954636 2.268672526205723 -0.0939017785232682 )
( 14.815957296623523 2.398210063441414 -0.1116096139939488 )
( 14.596091085157552 2.5380612565765635 -0.1242360889178017 )
( 14.36961161190262 2.695773347887282 -0.1323150032790331 )
( 14.138807724817443 2.865494340063564 -0.1373443087179337 )
( 13.906811764528188 3.045977040180654 -0.1395197965170742 )
( 13.675474502535074 3.2268407099916963 -0.1387860408324947 )
( 13.456220471142084 3.3877077711514723 -0.1368201398135247 )
( 13.245328934254156 3.5328149173145555 -0.1342439646507791 )
( 13.032592606520026 3.6535617096028585 -0.1309592809982139 )
( 12.824426082351833 3.7603123171269295 -0.1279021458178795 )
( 12.621940395626766 3.877381171487504 -0.125321886281087 )
( 12.42389937269174 4.017974128087496 -0.123023675479488 )
( 12.222659548489563 4.183718461424206 -0.1195003531795411 )
( 15.933683579490928 1.5457923254116306 0.0708025571681739 )
( 15.744471515177612 1.6681995171783326 0.0299756680621303 )
( 15.520257473657624 1.8391818816979424 -0.0169763434613047 )
( 15.306673014194155 1.9668981367551477 -0.0519131647878082 )
( 15.091843787840048 2.085920135529312 -0.0799772812754038 )
( 14.868824740629098 2.2077034890786136 -0.1013230784577262 )
( 14.644201624649478 2.33567784412122 -0.1161514389998111 )
( 14.406814244245735 2.47195628161192 -0.1262277148454744 )
( 14.162800206884276 2.623965123126436 -0.1327309335069374 )
( 13.918211723381638 2.7962415999111507 -0.1354699131805457 )
( 13.667000434029868 2.9827633727433835 -0.1357892456415568 )
( 13.418158563786232 3.160465626168309 -0.1342237767898827 )
( 13.174646767322873 3.321635776256227 -0.1309268190430264 )
( 12.93606510982592 3.466613225732342 -0.1276491152610054 )
( 12.70873011753738 3.582093392449758 -0.1251080964285855 )
( 12.491288844165885 3.6909499024975103 -0.122359305507157 )
( 12.27274172488268 3.8151152244072737 -0.118740633837289 )
( 12.051933345119789 3.9637520672336137 -0.1143955837122348 )
( 11.82306607312024 4.144634538958504 -0.107851866114753 )
( 15.84067592966554 1.4907206954043508 0.0605739927299129 )
( 15.645909898098768 1.6125000658713673 0.0193783819643467 )
( 15.40950079001926 1.780256090534717 -0.0267918048319549 )
( 15.182532410596508 1.904682264894645 -0.0607450736277271 )
( 14.956066222942916 2.022275576573478 -0.0865644380922646 )
( 14.725898149287634 2.1382222856610777 -0.104825064583204 )
( 14.487451310361276 2.261779742210857 -0.1178988749202697 )
( 14.239866173280976 2.396418206135128 -0.1263085586739103 )
( 13.978994326379564 2.54531173321701 -0.1310590569436617 )
( 13.71405180698746 2.718639776929697 -0.1322587668150662 )
( 13.442293564376442 2.9086700626432886 -0.1311486184100486 )
( 13.170223039447055 3.092098360346432 -0.1290513786410572 )
( 12.906736038999483 3.2558664417332803 -0.1256227768834654 )
( 12.652845639736276 3.3923800792055268 -0.1222537006826737 )
( 12.411426833680844 3.5046114688506464 -0.1193648460407247 )
( 12.174638120992704 3.6220944572355 -0.11550356553816 )
( 11.935491104566676 3.7597770293206487 -0.1103194323375319 )
( 11.68658082260924 3.912060949704264 -0.1036177344029277 )
( 11.420757895178689 4.09961483571042 -0.0953849857680718 )
( 15.756965454689736 1.4355968331712037 0.0512264065403576 )
( 15.551752978187483 1.5569984235867322 0.0094964485812034 )
( 15.2942095688908 1.7221188428976586 -0.0377281344806845 )
( 15.059434418263455 1.8374707284937355 -0.0683535687262128 )
( 14.827422950518956 1.9486013898268877 -0.0912485537378866 )
( 14.59042765533216 2.0611245217746643 -0.1073907999817683 )
( 14.339364892994912 2.1810585432181213 -0.1180013606607825 )
( 14.076803687460528 2.3166551413189533 -0.124829090327686 )
( 13.803859306850716 2.4645809558988137 -0.1278958611609242 )
( 13.521122622426793 2.6339697367273067 -0.12788516704587 )
( 13.22601673464658 2.826025569814423 -0.1260529022858913 )
( 12.929562166063851 3.0111762277876277 -0.1232291357346473 )
( 12.64535733308458 3.177935436790803 -0.119798059856452 )
( 12.381695678166514 3.312015654687336 -0.1164518256604445 )
( 12.127928937956884 3.4256838204381936 -0.1124599691663266 )
( 11.87018674482953 3.5494554581919826 -0.1073400142956941 )
( 11.601518657805736 3.694173506861176 -0.1008505016220238 )
( 11.318177407822745 3.85958130963369 -0.0928359353966756 )
( 11.03000827480028 4.067613381104289 -0.0853260810514298 )
( 15.6785281959318 1.3824439695799435 0.0424622143472073 )
( 15.46293786671712 1.5013746216979478 0.0014462858479756 )
( 15.191633297537503 1.6603558332057249 -0.0450114098131776 )
( 14.949323091116105 1.7654130267815258 -0.0735885643418063 )
( 14.711075655004285 1.866808648459146 -0.0939074271841634 )
( 14.46442428895832 1.9829928461955688 -0.1085406006161626 )
( 14.202517439265607 2.097806755128352 -0.1173773496333658 )
( 13.922663413694034 2.2258427273470622 -0.1223349979957061 )
( 13.634393122305015 2.3785822856501784 -0.1241106969686179 )
( 13.335105296466391 2.5456737153592366 -0.1230978041823904 )
( 13.013432797043244 2.7421944211160745 -0.1210431670625872 )
( 12.69135012809374 2.932977543006159 -0.1176942220655457 )
( 12.3971268564749 3.093225830533652 -0.113623881413905 )
( 12.127270337567614 3.2250789829167825 -0.1094628467826062 )
( 11.857882177497046 3.34501848376551 -0.1046465482722545 )
( 11.57546030342172 3.474650788289736 -0.0986970170001467 )
( 11.273221507753393 3.624515942049891 -0.0904272689786618 )
( 10.958945451293609 3.809323710373201 -0.0838114248659909 )
( 10.674988452563644 4.060899107380905 -0.0796985811475951 )
( 15.6061971343459 1.3291071735006 0.0343860561132165 )
( 15.377427506038382 1.4415404868387562 -0.0066290401983514 )
( 15.098374100968533 1.5963139666451265 -0.0501846466930509 )
( 14.854447337026812 1.695905282408685 -0.0770465313565126 )
( 14.60760368376206 1.792085033601466 -0.0949544645798759 )
( 14.345653738906188 1.903929409153568 -0.1075929380180283 )
( 14.070873061415938 2.0111443586913564 -0.1158283947378668 )
( 13.78500572525569 2.137023254129136 -0.1196488166902518 )
( 13.479683629276538 2.292355393883883 -0.12013277646646 )
( 13.156833300584186 2.4545915723159237 -0.1187549335820202 )
( 12.823070408882268 2.646770603975216 -0.1160972142597522 )
( 12.483165783899558 2.850886426203578 -0.1119423827110635 )
( 12.176107602117792 3.01026131143205 -0.1071026911209614 )
( 11.89018893061104 3.136474123809908 -0.1019132151033622 )
( 11.59487449196076 3.262459106086212 -0.0970818660861902 )
( 11.278033622921225 3.394660300549196 -0.0907452003555321 )
( 10.948620281368097 3.557325757981835 -0.0835972006694953 )
( 10.63056588675444 3.771879157248665 -0.0801254516806401 )
( 10.370207214232185 4.075240660784579 -0.0771374397826637 )
( 15.535685501559808 1.2743165124796334 0.0266085776058837 )
( 15.298175741959389 1.379872142222376 -0.0136819879024517 )
( 15.011847239779447 1.526650537809549 -0.0548681930860212 )
( 14.76730070620601 1.621227054181419 -0.0792635387745675 )
( 14.513270295128812 1.71845484303658 -0.0955887665343266 )
( 14.237858933992005 1.8249567225016443 -0.1064576567377135 )
( 13.953888952676936 1.921623978240716 -0.1133117038847364 )
( 13.656491648888668 2.0497195892012665 -0.1160697899826575 )
( 13.33273456830807 2.207469099632649 -0.1159423166634905 )
( 12.99144533561428 2.3719956884081843 -0.1136662690214184 )
( 12.638216026747187 2.555912542894898 -0.1094425032976699 )
( 12.284220419118263 2.747614331345907 -0.1046506464687112 )
( 11.963882881956524 2.911133423978188 -0.0999112459714872 )
( 11.65359972236631 3.045629414315197 -0.0945545467040794 )
( 11.329881535266798 3.167818920485389 -0.0895554967753189 )
( 10.98851655548461 3.3050364208100804 -0.08393842878041 )
( 10.642455421741056 3.486903354973726 -0.0794531921771896 )
( 10.34094684657954 3.747334312419679 -0.0781790958151567 )
( 10.078694386040368 4.104054732555167 -0.0760694597785911 )
( 15.471504245478416 1.2163664477804024 0.019737816780119 )
( 15.228348051707863 1.3149071711177347 -0.0187928387420006 )
( 14.932163826934344 1.4500633238992873 -0.0580199683533742 )
( 14.685753152872737 1.543301245142605 -0.0802979581724975 )
( 14.42333393582203 1.636889087963836 -0.0954406247411514 )
( 14.134985724933204 1.7409172244705975 -0.1052792772810831 )
( 13.850746278503896 1.8385406657615335 -0.1103183332480296 )
( 13.53933596723331 1.9579573942438293 -0.1114675338809467 )
( 13.193986695978946 2.1138623763084348 -0.1108770268976308 )
( 12.832527638944686 2.284630679431685 -0.1080053251037228 )
( 12.454784506554182 2.469863595748999 -0.1031452659423892 )
( 12.094605790477823 2.64933948800564 -0.0984189772817598 )
( 11.754700829252402 2.805812250441723 -0.0940526379233046 )
( 11.416031784675562 2.9453002492314533 -0.0883880258240677 )
( 11.07498212335306 3.073692714138137 -0.0826047251097033 )
( 10.719373740699758 3.2271909323539374 -0.0776358126654983 )
( 10.367151870396487 3.4370619805670275 -0.075503164649503 )
( 10.07129058725292 3.737906039960277 -0.0758064286639763 )
( 9.71598995191836 4.0943516800337205 -0.0763142864818876 )
( 15.416763014865989 1.1569453208517968 0.0152108926904787 )
( 15.162069013951845 1.244422208699668 -0.0224066473724452 )
( 14.85859370293254 1.3718426481154455 -0.0598856625689041 )
( 14.607816555511164 1.4632782633151589 -0.0803859220689532 )
( 14.338362736519452 1.5551898669994455 -0.094219330443458 )
( 14.04058628494489 1.6608399633406363 -0.1028163418344818 )
( 13.74527955849274 1.756920637435546 -0.1064758868585929 )
( 13.427000714550395 1.8673474057435293 -0.1068167185568414 )
( 13.06982279912907 2.015547386630752 -0.1054285023179142 )
( 12.687060029485318 2.18157844328698 -0.1021235940151833 )
( 12.290846550172278 2.373300207422857 -0.0982783941479783 )
( 11.917829918836809 2.5573270381272244 -0.0942968333402454 )
( 11.553357004097442 2.7064081656897807 -0.0895445362810465 )
( 11.193338928284296 2.8398437201725857 -0.0836930415203435 )
( 10.828569010826095 2.987889868025079 -0.0770496519393965 )
( 10.460151369943352 3.16020753610768 -0.0725341169696092 )
( 10.115547254503532 3.398867893246499 -0.0730394156569062 )
( 9.76828689901605 3.7277064159572615 -0.0733165446945139 )
( 9.237083572624616 4.016832836923566 -0.0754552015798195 )
( 15.36256011314256 1.0928810380270224 0.0110731331981957 )
( 15.103688246072936 1.1764477967754976 -0.0255554836290387 )
( 14.798014747858938 1.2957243613849467 -0.0606664342444251 )
( 14.537282143425475 1.376883496003847 -0.0793987664519074 )
( 14.26118938787656 1.4697396656264974 -0.0919107305992456 )
( 13.957909790218572 1.5792607446556943 -0.0990981004647028 )
( 13.64893580966744 1.6692781450162402 -0.1021182060207033 )
( 13.324569003159487 1.772836881330314 -0.1023496973080843 )
( 12.948741265807715 1.9193850447901677 -0.1000823488160311 )
( 12.548853747536995 2.0839933442439973 -0.0960870225677897 )
( 12.137807872422684 2.2718367700483237 -0.093161235642818 )
( 11.737714384284802 2.4568184885144704 -0.089533269333217 )
( 11.360893945817772 2.6118936580705 -0.084237460186525 )
( 10.9940776752726 2.7446476401742124 -0.0791888427073756 )
( 10.605281856677614 2.903200274047717 -0.0740987700834029 )
( 10.216385900141042 3.096447458887911 -0.0718932683958128 )
( 9.869478124401576 3.3602157813383875 -0.0718152876078782 )
( 9.431235789550035 3.692379299666085 -0.0717308470055594 )
( 8.624737344063876 3.8494272727517114 -0.0739511217698194 )
( 15.310670476668218 1.0261885590487838 0.0058731466965321 )
( 15.051411942240463 1.109965104696851 -0.0280370362895041 )
( 14.74250314663809 1.2246263471243626 -0.0608966994356561 )
( 14.476746639719924 1.300576977061554 -0.0783053896280184 )
( 14.191026966688176 1.3889080092897277 -0.0892971648517149 )
( 13.874244520788093 1.4864608758295743 -0.0953828252313525 )
( 13.555167187250412 1.5746148448542958 -0.0976817447795021 )
( 13.224454157155472 1.6751892603699858 -0.0974564402207529 )
( 12.823639284576588 1.820134020321492 -0.0946978162124119 )
( 12.407067493464414 1.9903904545377524 -0.0909525805318709 )
( 11.992880784996268 2.1718380569429283 -0.088597136294134 )
( 11.58126844064596 2.357118390536171 -0.0847266751099666 )
( 11.189576510092884 2.520398948315256 -0.0793681254856083 )
( 10.796472296547662 2.654227170000548 -0.0742285881051992 )
( 10.396338130770866 2.813978337718312 -0.070524194883657 )
( 9.99878172447279 3.027584254429782 -0.0702001708252343 )
( 9.59847615924718 3.3168758704039383 -0.0711220122256166 )
( 9.085704051915092 3.6377344982637143 -0.0736645260652609 )
( 7.8281073046572445 3.552160202041731 -0.0704129141470614 )
( 15.263147096836738 0.965905772058378 0.0014781314519303 )
( 14.999421462787277 1.044365890308586 -0.0296059236625991 )
( 14.68800643212736 1.1536004488312377 -0.0604333659528183 )
( 14.421637617089694 1.228643080185024 -0.0765714051325324 )
( 14.125963824053343 1.3094145443577234 -0.0863765825833659 )
( 13.802581100440266 1.3953412218273666 -0.0920190375751542 )
( 13.47480340224438 1.487455743141395 -0.0942050395890182 )
( 13.126535964210836 1.5936577898627269 -0.0932635847984834 )
( 12.70657998426528 1.7293008100092542 -0.0899981239204831 )
( 12.268856028924276 1.89815707625582 -0.0864421599517209 )
( 11.847949420862404 2.0731176245590146 -0.0840909125674655 )
( 11.436055529923626 2.2443842006464343 -0.0806070186487621 )
( 11.027925982376292 2.405053140833155 -0.0755527842048502 )
( 10.607938699688704 2.5501715146451764 -0.0703175508449052 )
( 10.190264537390869 2.719804883835323 -0.0656046300580508 )
( 9.780224161462728 2.951135172473978 -0.0647512116019883 )
( 9.304320746600917 3.254430297919933 -0.067971548002061 )
( 8.577551019464806 3.4848693115400726 -0.0699255833839383 )
( 7.037306544762632 3.2160645115794075 -0.0626109214553495 )
( 15.222273782228507 0.9045468179927594 -0.0010567023513763 )
( 14.954095583118754 0.9797009800408448 -0.0306639283838381 )
( 14.635597240354434 1.0833012718089856 -0.0600826051443832 )
( 14.36604219499082 1.151164045368944 -0.0747154227080809 )
( 14.064951565992924 1.2309723153295324 -0.0830960348656991 )
( 13.74183268100114 1.3198070060318374 -0.0885429438468107 )
( 13.41052838204423 1.4105333424833233 -0.0911161463630775 )
( 13.040430732749016 1.5119988447630626 -0.0890890736093631 )
( 12.609152024634913 1.643887772290808 -0.0854118195160174 )
( 12.162781442961258 1.8083825380464296 -0.0821254828312044 )
( 11.723512907107896 1.9786161325898697 -0.0798871241327537 )
( 11.28769409862449 2.1367642870785204 -0.0769509170461688 )
( 10.859759868735052 2.2867712123849118 -0.0728011573105874 )
( 10.424579703768933 2.437639042646477 -0.0688711146187433 )
( 9.994026797990136 2.625110334711022 -0.0647670544348528 )
( 9.55310322932125 2.886086006224609 -0.0647759470632027 )
( 9.012877632335984 3.181485479282391 -0.0660239111177715 )
( 8.005132336321608 3.2549935612357395 -0.0630861824603294 )
( 6.345601022624984 2.8946710962852724 -0.056767683281195 )
( 15.187213618682463 0.8403293095561226 -0.0030315782009967 )
( 14.91923014598703 0.9142322283567748 -0.0310904327109602 )
( 14.59226387843852 1.014478401680612 -0.0592857464524892 )
( 14.314865607068114 1.0755827220902656 -0.0727511209838458 )
( 14.007081164106502 1.1504398536457383 -0.0800230281017816 )
( 13.679823748158478 1.2383031686752102 -0.0844277251180978 )
( 13.342327453170762 1.317099487816812 -0.086040864610298 )
( 12.960536487036372 1.4158760555548775 -0.0838913981250823 )
( 12.528620301188129 1.5573100639640385 -0.0808239250557908 )
( 12.074561400404164 1.7171079994361806 -0.0783912531999588 )
( 11.612036656069517 1.8862601230110665 -0.0769608799785981 )
( 11.151810808192357 2.034077876107361 -0.0740104597395197 )
( 10.704831218788536 2.1747835643231888 -0.0712482362359132 )
( 10.244621286814168 2.330821627745729 -0.0685089697549871 )
( 9.79937951847549 2.5293367714729964 -0.0656756522799038 )
( 9.305464477399369 2.8056720701683 -0.0670733267654501 )
( 8.680009514188898 3.069452833456168 -0.0672291194682443 )
( 7.511856086221965 3.023583087540837 -0.0601026971823654 )
( 5.696103893037463 2.5632192760816976 -0.0516190890146048 )
( 15.156233956511477 0.7840868335501427 -0.0054119887320785 )
( 14.886741418992049 0.8515836907705445 -0.0311724894990881 )
( 14.554485322999737 0.9437361732501236 -0.0577673542305634 )