/*--------------------------------*- C++ -*----------------------------------*\
| =========                 |                                                 |
| \\      /  F ield         | OpenFOAM: The Open Source CFD Toolbox           |
|  \\    /   O peration     | Version:  2112                                  |
|   \\  /    A nd           | Website:  www.openfoam.com                      |
|    \\/     M anipulation  |                                                 |
\*---------------------------------------------------------------------------*/
FoamFile
{
    version     2.0;
    format      ascii;
    arch        "LSB;label=32;scalar=64";
    class       volScalarField;
    location    "0.0079";
    object      k_LES;
}
// * * * * * * * * * * * * * * * * * * * * * * * * * * * * * * * * * * * * * // 
 
dimensions      [0 2 -2 0 0 0 0];
 
internalField   nonuniform List<scalar> 
13597
(
0.2505774453874259
0.2450423193597134
0.2363793604308922
0.2272877265227269
0.220546199390953
0.216081571694861
0.2121579126792191
0.2095101933373275
0.2090718736259316
0.2100445548218699
0.2131614254816086
0.2184217319878945
0.2253391611852375
0.23396334680108
0.2441627281882865
0.2557744480262362
0.2675357227227695
0.2784130902554052
0.2895709323924414
0.230750849783438
0.2254154010140484
0.2189982208915005
0.2164698450191874
0.2162897015047608
0.2179513447476771
0.2211798161621148
0.2262725663395411
0.233302743306597
0.2413093777173236
0.2511025216229444
0.2623450489586071
0.2738851189634878
0.2861335133257693
0.2979327962440255
0.3084321465580163
0.3173694543595663
0.3254609321677206
0.333365793199858
0.2163803360959829
0.2125686141414141
0.2118488515248893
0.2164963425858104
0.222183487514087
0.2293834654506071
0.2369383636338342
0.2448482184660723
0.2535764367715029
0.2634879696120303
0.273851493685348
0.2850239708019151
0.2966513501004139
0.3075779991626254
0.3174232009977041
0.3256992145462148
0.3325637869022033
0.3388098649953623
0.3449487925495639
0.2081617488591581
0.2078550870927553
0.2121013192534327
0.2207912311208843
0.228634849109674
0.2364702530788195
0.2444724011693376
0.2527154550311949
0.2615572013589386
0.2715283868951419
0.2821706966011379
0.2936408201718682
0.305781178817576
0.3179585023475431
0.3283738407766379
0.3365813803386405
0.3430667041617359
0.3491103523640168
0.3546406884015835
0.2057392207993372
0.2077396007160362
0.2143636648210312
0.2246387952341133
0.2321864683533838
0.2393808530226124
0.2473122235477503
0.2560486434383726
0.2661949537121335
0.2781501545611653
0.2924337350086852
0.3075342619051535
0.322082666243496
0.335311316853822
0.3449011428559363
0.3519785470520006
0.35688509997042
0.3604559681960202
0.3626178295367574
0.2063387435542713
0.2091384418793934
0.216081212109464
0.2260459084771462
0.2332688942504134
0.2410718661645926
0.2505177218217904
0.2617058188774024
0.2755565184715347
0.2919972051857857
0.3092370991592346
0.3254230519246573
0.3393591143536346
0.3493255761921892
0.3556003218936288
0.3594353080235537
0.361604444158709
0.3623231977480132
0.3618849510662653
0.2085363522460278
0.2115483139849958
0.2179614620142816
0.2267465310220998
0.2346364673673804
0.2446930151321479
0.2573672465755144
0.2720555033768905
0.288579398066634
0.3062457487928945
0.3229863502416548
0.33765825734228
0.3486903734755446
0.3556947988196877
0.3599569529600826
0.362203986978448
0.3634262330067183
0.3642409486443073
0.3647484374805119
0.2108590846589564
0.2130216578575227
0.2188402684350406
0.227688468989196
0.2374070993245544
0.2502662724888176
0.2655434782666587
0.2823841279773054
0.3000031562827721
0.3168284308652322
0.332174042525575
0.3454863707990576
0.3545029233019418
0.3601349661054701
0.3640923070667959
0.3672704831642795
0.3702453181562711
0.3736947593994714
0.3774161163593486
0.2117479527426066
0.2129811994758013
0.2189085992030746
0.2288401736774835
0.2408928097874743
0.255831993753137
0.2722447375502304
0.2903001877286927
0.308426146852903
0.3244789350351984
0.3388039771143941
0.351174013261434
0.3600651073484
0.3668532780728603
0.3726408994088731
0.3787099746036478
0.3851144741394143
0.3924891707760874
0.4009443969461237
0.2129142391682088
0.213302281766519
0.2193100885814505
0.230457139742356
0.2446492103470748
0.2607781614113843
0.2777615704996646
0.2965578419307186
0.3145946614032098
0.3304190848866024
0.3447929317070995
0.3573969963338281
0.3679243541162941
0.3775272870598498
0.3868524815872075
0.3970175037905722
0.4081574511269262
0.4205336022717081
0.4343783832034043
0.2136585534467815
0.2131615466140242
0.2201544276787709
0.2318410065617807
0.2469439928860988
0.2639214545202296
0.281789733875222
0.3011791338391029
0.3196035738149898
0.3362608009128733
0.3516468478228974
0.3662631899704525
0.3794668267163196
0.3924964635244665
0.4066601845994719
0.4220232694439677
0.4389034360771178
0.4570428131690853
0.4773100226218105
0.2129420227663091
0.2121458503927634
0.2207610786398879
0.2329766949500514
0.2487785239206759
0.2665424255607169
0.2856451826259908
0.3058288801889599
0.3246797131293513
0.3425244479738507
0.3599379017225622
0.3776117105052163
0.3948657896739334
0.4127904462452834
0.4326275617018041
0.4536382023341795
0.4762147330631212
0.5014318675608505
0.5298382061147243
0.2118562685445818
0.2113045989400122
0.220372540154241
0.2337396057965062
0.2508902583089281
0.269661029642669
0.289433234380114
0.3101074007498382
0.3300821497919737
0.3494738556481271
0.3703270399048291
0.3920942653318258
0.4143500292132626
0.4385192259827801
0.4638517507959728
0.4906134709321497
0.5210621087048364
0.555353143511816
0.5912921256287196
0.2111989451445015
0.2106512518001614
0.2198181669967395
0.2338897180334398
0.2519921892571384
0.2721923779929042
0.2929182844597095
0.3136826813026256
0.3353383854316061
0.3580917130315348
0.382689371992826
0.4094965811700704
0.4375914875771581
0.4673859862771942
0.4991148799536688
0.5342407642017929
0.5743631073892665
0.6170743348471118
0.6626798664586959
0.2101262959088685
0.2095635784218277
0.2200126954641689
0.2342554972475094
0.252845134998529
0.2738297090808197
0.2955520746017279
0.3182266731667588
0.3422023747304263
0.3681868305945728
0.397303944154172
0.4297022774492353
0.4645813031000836
0.5005058182311463
0.5397902600511569
0.584482588894213
0.6337215632307426
0.6870519543259973
0.7554066049300421
0.2085142921548589
0.2072442719268867
0.2186889180951209
0.2342237646080152
0.2533788420107201
0.2748978774068666
0.2981317545329642
0.3231159623744788
0.3503700910049089
0.3797853790077395
0.4143677625438742
0.4535654711295434
0.4946900306754475
0.5374780283162263
0.5851107593246232
0.638529224701149
0.698657463271193
0.7740330243542629
0.8815662980210601
0.2064932282614664
0.2047227688620028
0.2172507118066105
0.2339853411753615
0.254256255556223
0.2774010223029675
0.302237488875034
0.3285240663455126
0.3587693229160631
0.3926052099656709
0.4312854612671942
0.4773279856555013
0.526025598270548
0.5766742698603944
0.6332476630774747
0.6975482621851805
0.7760809534627662
0.8868706055364577
1.0286767076565857
0.2041361413045031
0.2027152068855187
0.216319165698138
0.2339489488671943
0.255371602814439
0.2801777107972442
0.3058967739315343
0.3341994290853471
0.3680033386527337
0.4059407800942942
0.4501365673767931
0.5030118115641966
0.5592066203384206
0.618899400910741
0.6852554140348696
0.7629643400050208
0.8709729591531473
1.021079819723096
1.1548665591445904
0.2023862919254036
0.2012791865658109
0.2156097644135368
0.2343741973582707
0.2566846788225165
0.2828716925661343
0.3095583411360211
0.3399818829280898
0.377434754261062
0.4203645387832495
0.4722711429377793
0.5309748203500296
0.5945914289302202
0.6642947123186272
0.7411257810254268
0.8405249433124741
0.9864371766950164
1.167051835673356
1.247895768874228
0.2010682908406157
0.2000017812408155
0.2152077258196915
0.2351218095842362
0.2583919844664659
0.285836614724587
0.3144146118205358
0.3465492071222024
0.3866257991098393
0.4349976242163162
0.4946445625783578
0.5605589768541921
0.6319208971837077
0.7099074525174158
0.8047235655698564
0.932670914565044
1.1171404104894718
1.307208171542748
1.306946105707744
0.1994928674631125
0.198818846472818
0.2144747486934215
0.2352046955665032
0.2596252127761874
0.2882801054911563
0.3189151737828959
0.3526316256968808
0.3965281304198446
0.4504927479965826
0.5170475856018039
0.5924870327415088
0.6706129347445283
0.7557460976813157
0.8718512882056411
1.0377726032118189
1.2568767538559242
1.429627235103214
1.3013953586046567
0.1985341390455211
0.1983627622633507
0.2146351815773589
0.2356261873569672
0.2612523449003814
0.2916737945719205
0.3238557131102253
0.3592984953514707
0.4079300070400893
0.4675764373830389
0.5390334333969219
0.6204047060486712
0.705899738459353
0.80646697331456
0.944536834524823
1.1514860332484542
1.3935388342148982
1.524964587988693
1.210021485510308
0.1981298207071652
0.1986340680338583
0.2152044420347228
0.2364445201271049
0.26316872305661
0.2946110765920196
0.3284435685312636
0.3672828407443867
0.4203645994697962
0.4861303945781628
0.5625341806202596
0.6475110057946237
0.7406398353503036
0.8590221025193753
1.0308140616245396
1.2746519192967458
1.5226353789835356
1.5525048878285328
1.1070927895651783
0.1982966694944591
0.1992737325988649
0.2162632942856409
0.2376329844848564
0.2650741462329066
0.2970554986983245
0.3320477661777621
0.374380195828534
0.4310610013949884
0.5011207629874205
0.5835814307122066
0.677277113755837
0.7807230573693461
0.916515179627567
1.123052654197649
1.3983448717161833
1.6392459544856142
1.5340411885091574
1.014290565774531
0.1993208680121114
0.2000700530781603
0.2175086056493752
0.239455483845604
0.2673523507650503
0.3000296665669442
0.336086469039148
0.3809020796228484
0.4398380913119665
0.5137851156999996
0.6036435381726792
0.7064225275919603
0.8213534280422041
0.9844251590060078
1.2188858577490114
1.511931315249677
1.7232054818558984
1.5046515037691564
0.9112867067866676
0.2006199951967098
0.2012874105410966
0.2187158967897543
0.241211352914204
0.2697009176078939
0.3024569369325555
0.3404338023631327
0.3877854684958672
0.4489779289933148
0.5288802215025434
0.6246543920429121
0.733706501133105
0.8618042528599822
1.050028459529352
1.3108531734906868
1.6177526013708734
1.750879989581903
1.433895864981754
0.8339382730072161
0.201638241694144
0.2024553513687904
0.2201318543784809
0.2429631140017062
0.2715857286943586
0.3047099711375806
0.3449589286956677
0.3951050058527204
0.459400467297797
0.5443339778723483
0.6443539018404671
0.7586443876194936
0.9011009991256388
1.1082051493270737
1.3981131992911369
1.7102982615452655
1.7601601448026707
1.3531918031893362
0.7687350858974275
0.2030135984654272
0.2037647482538419
0.2218079164655955
0.2452050121847105
0.2732760486575938
0.3071267228923258
0.3487574097998549
0.4009041096968828
0.4690044241603566
0.5598960104282887
0.665324129330091
0.782714340879506
0.9379027543109004
1.1664563723651526
1.491014557504734
1.7988681618647966
1.7888207075871516
1.2994281829460577
0.713294379213106
0.2047081846257346
0.2052749724944074
0.2230254169586539
0.2470346564554965
0.2746109630643859
0.3089588869174293
0.3516048579477803
0.4053517877685484
0.4776660648734859
0.5737521132830361
0.6833320165178622
0.8091056444902143
0.9848258504258712
1.228666615656042
1.5729348109494723
1.865390850284204
1.7907537240260878
1.2503467232441572
0.6792120231598359
0.2068415903809183
0.2069766107827714
0.224523745496573
0.248669371271858
0.2761802256972756
0.3113597550762839
0.3544711111119286
0.4100411703720825
0.4866298255460307
0.5843058195001105
0.6965195214087737
0.8357327995874012
1.026794533494699
1.2874555319725562
1.6424879836791313
1.8634872738850037
1.72566976078011
1.202587484910465
0.659918200628333
0.2095187086009063
0.2092208304294539
0.2263937447730558
0.250122752471658
0.278189829083699
0.3144078940302667
0.3577710691436618
0.4158972283193509
0.4956520519402591
0.5947656094821213
0.7111763109092032
0.8608601862153347
1.056784082324109
1.3390546466235262
1.7056780329337529
1.8530210135779164
1.659121736256662
1.160468342549301
0.6463619616674977
0.2124212426836134
0.2116499109643566
0.228382428437083
0.2518901008295619
0.2802817902372059
0.3167140961559902
0.3613661477414119
0.4224514096439525
0.5044345255801815
0.605831963099498
0.7263652523228887
0.8829810567930252
1.087879973969165
1.4003783005735866
1.7648448421942853
1.8743922730292084
1.6425971187128972
1.124379788132839
0.6285825561941684
0.2149746764246599
0.2137663394095496
0.2304642486946533
0.2540647591762253
0.2822222787464549
0.3181914990403904
0.3639731317453247
0.4274540619021608
0.511934433045223
0.6168480901177222
0.741433010274901
0.903998411304934
1.1162619766475477
1.451336529786331
1.8203430876344744
1.905078773933415
1.6433181979102915
1.0991720024591212
0.6077920750193555
0.2175386860210515
0.2161168884255245
0.2325137881927212
0.2557253540357216
0.2839324067798701
0.3198544575972322
0.365700155205747
0.4308836219775588
0.5177376371748791
0.6277236712623243
0.7582589131224271
0.9245664853632624
1.1416540962101118
1.4885714846793976
1.8696097223800865
1.938414801506556
1.6485225100862329
1.0846207097156917
0.5964880851213222
0.2205379964892028
0.2188784321674675
0.2347344988808167
0.2568698713170322
0.2853223912723588
0.3215038218685552
0.3674078485836911
0.4336781484316864
0.5227695843256388
0.6364872625745914
0.771541511096292
0.9413939003138208
1.1677378678172323
1.5254933636655643
1.9041593175443603
1.9558518818382185
1.6469176545418402
1.0731679750706913
0.5907101346629317
0.2231919323566917
0.2211919705843926
0.236534592996561
0.2580854037149291
0.2865027660314985
0.3230674378278115
0.3689998264934765
0.4361171524525883
0.527991725019301
0.6429606024351148
0.7811262488126169
0.9563109072847076
1.191635665309585
1.5521126653649864
1.9293772742696296
1.971281244945072
1.6404631028796202
1.059355156800739
0.5823244368247793
0.225749637434466
0.2234206385949678
0.2384611807091756
0.2595533918026449
0.2879345221512353
0.3251447074511367
0.371579706510607
0.439104169129634
0.5330689801059867
0.6494339348257978
0.7903524754258257
0.9711855502653944
1.212820378315068
1.576845590884313
1.951693426310905
1.9793642293780396
1.6418209572280056
1.0565571631094277
0.5745966585396459
0.2283464799113347
0.2255932177001559
0.240077504354485
0.2605961569884397
0.2887091485330365
0.3261702418038629
0.3742215722554767
0.4422881888319685
0.5379858097987679
0.6553066390393872
0.7988401540891271
0.984526430588488
1.2366602913749396
1.6035055940453415
1.96166326196032
1.9798509909014228
1.6361490811969277
1.054498972523218
0.5712604364404501
0.2306576968989638
0.2275413043986282
0.2411175401132947
0.2614607321524962
0.2894387648165375
0.3264439069435066
0.3752457476179499
0.4440805871809808
0.5421368761680131
0.6601113821194673
0.805590064552014
0.9949844025238052
1.2604705477244296
1.63421278004126
1.9672007363110824
1.9734186291986149
1.6199479212100338
1.0442461987442249
0.571182023891715
0.2332457062279121
0.2297753427636624
0.2426340500022079
0.2627414533356398
0.2905386875216794
0.3272242815100887
0.3757849375526551
0.4446732250031134
0.5440477163600803
0.6627404087787342
0.8095459688515638
1.0021782162077717
1.2744984567959268
1.6579115526056944
1.9752547177929387
1.9621535194086224
1.610111457225776
1.0392627643760748
0.571978852398661
0.2358597146061578
0.2318702869758667
0.2441991592595837
0.2639348159690006
0.2914310415564112
0.3280905734849446
0.3763647828329204
0.4456198506002612
0.5464450351209693
0.6670701675308749
0.8140197012052296
1.0104530104245628
1.2863876758362902
1.6701618745513287
1.9751412531249275
1.9466536035205588
1.5976143169593944
1.0333512939053888
0.5728070591015668
0.2379571643806984
0.2334566161537113
0.2453453619284122
0.2648799093107656
0.2921252478624713
0.3287838499002249
0.37727434815279
0.4471671183299713
0.5497566344612895
0.6742599511786526
0.8211155647141473
1.018707125533895
1.2964233059901629
1.6748353800984612
1.9740937152769704
1.9396438345899585
1.5842788338117586
1.0230077728633356
0.571374215786228
0.2401374524445952
0.2352148830167452
0.2466034924766978
0.2658410698171721
0.2929743436007384
0.3295753920432246
0.3783902096560426
0.4479517210931775
0.5502972789847846
0.678073110812115
0.8267127762053343
1.0225350143064191
1.2975639372453447
1.681207013154039
1.9848140760545512
1.939645919064881
1.5734275059525562
1.0135425856385785
0.5660217524243617
0.2423615806144469
0.2369627825731692
0.2476872582229024
0.2666009060892446
0.2939303421999501
0.3302814672257267
0.3785331503017602
0.4479726918113683
0.551790486508068
0.6823665921039271
0.8318513039382598
1.0282077997829566
1.3016688135957228
1.6882754602033652
1.9812060055472385
1.9247181111054497
1.5627929003315464
1.0075918775267385
0.5632342091795737
0.270214745805429
0.2696172652944222
0.2686900762449875
0.2669848657966019
0.2647126801978119
0.262000321983905
0.2582350171951638
0.2543114620658941
0.25111098908217
0.2484913865251687
0.2459853229906199
0.2440500115855711
0.2420370651180812
0.2399848306261932
0.2386268218290648
0.2370260085455098
0.2357893193478873
0.2347624316381824
0.2333958089689455
0.2774402232205806
0.2781781411949287
0.2776478580988035
0.2772348707653964
0.2761418735413869
0.2747583239673564
0.273012906063831
0.2710828307465098
0.2687807055002072
0.2661074873260688
0.2635393020573553
0.2614825825708549
0.2596924489520547
0.2568379423738089
0.2541862895138818
0.2518864497813787
0.2502327464692083
0.2495810874336239
0.2486922090625732
0.2763207390013661
0.2767318766526867
0.2761083557415337
0.2766120158918149
0.2762462354135551
0.2755396403642887
0.2736853963439752
0.2709305038046221
0.2680287912979768
0.2645093830443216
0.2606054395073809
0.2570336258948918
0.2542667001843332
0.2514793927988482
0.2491312264536941
0.247892813354391
0.2468607533983622
0.2460189552138827
0.2450000570162385
0.2711651798079987
0.270789560004049
0.2707809709918007
0.2721316251117005
0.2713908421060244
0.270298658722153
0.2682518222835744
0.2652499811829982
0.2619046130931257
0.2582347208790953
0.254787858809187
0.2519753053452594
0.2500784232568537
0.248592355513376
0.2475538765841981
0.2471766128963957
0.2466806416622083
0.2459902370236943
0.2456493359100562
0.2637531339213172
0.2631090791046359
0.2656254252705238
0.2687999059897084
0.2684693639550874
0.2676403619893852
0.2667798155854807
0.2647219718408014
0.2626962422699683
0.2605363948511871
0.2582210626206365
0.2566002869110627
0.255214299126744
0.2539299824534267
0.2532141209427344
0.2532953867411538
0.2536226874361182
0.2539673038284951
0.2548280311629412
0.2568398953138527
0.257741421959796
0.262981875359607
0.2686545653781903
0.2708118031566189
0.2722450355874777
0.2726969655372406
0.2720488113857786
0.2708763483627734
0.2683717350351376
0.2656388819467503
0.2638136055937937
0.2624068255760897
0.2613249320690243
0.2614031937202388
0.2627756827930892
0.2645425757362113
0.2669829379029246
0.2705658888948712
0.2540153612165913
0.2573989658885407
0.2649499489036021
0.2734399493593629
0.2780303429181014
0.2808102570217066
0.2818770631061197
0.2810665393252984
0.2787867645195485
0.2755180322723546
0.272313063057862
0.269880883992031
0.2691648998307285
0.2701998736692517
0.2725542142176322
0.2763902067124116
0.2812060975215523
0.2874080344276821
0.2952781293143323
0.2551268371144507
0.261194428514883
0.2720077177773027
0.282019321680563
0.2873473946014976
0.2897037636938305
0.2897729971714106
0.2869617665448169
0.283322243637942
0.2802335172142821
0.2774989570657969
0.2764901057377877
0.2780794685912467
0.2825092180870289
0.2887463644028097
0.2964322705401054
0.3055604943909659
0.3166477281311723
0.3296562601633102
0.2602296090219206
0.2688519518454894
0.2813583888738339
0.2915778720049991
0.2963083070658223
0.2969548921318603
0.2947975566594117
0.2911257206210723
0.2870932681114308
0.2837121449073795
0.2826350328154056
0.2851750348347865
0.2907963776421378
0.2994817443310447
0.3104321968517784
0.3228720577944994
0.337361736086714
0.3540219431751729
0.3726261371582756
0.2664440795632594
0.2772873403461554
0.2909112003762846
0.2998364282999968
0.3026467065276145
0.3013988496805445
0.2974373768404087
0.2931713857273045
0.2892744515791051
0.2875416056804193
0.2898965288773688
0.29695028482063
0.3079288808819542
0.3218584034015611
0.3379708046997476
0.355765912456351
0.3766667364315977
0.3996795713775341
0.4240564616856106
0.2732016414793811
0.2856185227449525
0.2988365261900536
0.3057331323591253
0.3061485778402763
0.302970434490864
0.2978522391076281
0.2933950523786544
0.2914149513997645
0.2929491594610355
0.2996783502389695
0.312423933020048
0.3294066254646222
0.3492845105380527
0.3716075791134798
0.3957188519501661
0.4225635535578639
0.4516489937915784
0.4818622453011989
0.2810598132265048
0.293491896970747
0.3046760430192292
0.3086661096774925
0.3068431178235432
0.302394371825217
0.2970253642858469
0.2938202226318159
0.2950262053871599
0.3008245977484263
0.3134023247799878
0.3322928480421568
0.3548642377054001
0.3810122872287166
0.4100907916864291
0.4408641069845255
0.4736320905174513
0.5086257042082587
0.5455251398708507
0.287670509012482
0.2988186129819308
0.3084130694685519
0.3093834813625987
0.305772357352338
0.3009046305830587
0.2965562928965464
0.2955281721919083
0.300027990343666
0.3111785059219439
0.3301433849315345
0.3558282986621262
0.384454956255919
0.4162103388500435
0.4518654307114499
0.4895668064983283
0.5292734332585103
0.5719158952345885
0.617824106903782
0.2924890597841401
0.3020017193663641
0.3098966994329873
0.3086420453890905
0.3039116136528227
0.2993189236033491
0.2966631124085435
0.2985880359016106
0.3073734559493372
0.3240247928642668
0.3491747975982983
0.3813703717943729
0.4169207070637296
0.4542434426319623
0.4964935859122047
0.5429886707881733
0.5903567629122725
0.6414626013290663
0.6971123684564614
0.2968348041773851
0.3040887103729388
0.3092741738419021
0.3068904597089703
0.3019551780506952
0.2980772385028802
0.2977005877488548
0.3030068703631465
0.3166264489477461
0.3393138836296125
0.3704503863795986
0.4077177310400793
0.4501786282847694
0.4958978137779144
0.5447238334342218
0.5992581993018388
0.6565062661695179
0.7181179871621822
0.7900040363950384
0.2998352244360729
0.3045292735296017
0.3075240682446622
0.3043495130050028
0.2998543828214102
0.2972726321291056
0.2995658552714249
0.308550572892524
0.3265358283683618
0.3554607310020814
0.3918613062129197
0.4358345258680816
0.4858728434174064
0.540238984893966
0.5965190242421994
0.657108200260768
0.726119070079158
0.8057304816677475
0.9042128735704004
0.3005064094888078
0.3028529969605161
0.3051824571388014
0.3019335309923178
0.2981295464938367
0.2971394234954744
0.3021973371032707
0.3153920927605024
0.3383159279171722
0.372030521651059
0.414152151538638
0.4657765254157094
0.5225660484200289
0.5837945737714838
0.6495438876614802
0.7204690885292033
0.8033018524292709
0.9081004485470444
1.03501718416374
0.2996214700800386
0.3002723080898972
0.302227000894099
0.299326796418378
0.2964840697475897
0.2975259388627018
0.3057689219307162
0.323399687596879
0.3518297666036616
0.389580122494714
0.4382379387675371
0.4973491175695687
0.5612321210566648
0.6303751249309651
0.7050081267424491
0.789942398601678
0.8934252141516744
1.0331311641453085
1.1750764159567886
0.2981781024805098
0.2979786826654999
0.2991950805316267
0.2962191616439117
0.2947310914928628
0.2982096012100506
0.3098041237782092
0.3315581539527647
0.3643527385567112
0.4069742590273704
0.4623518975326315
0.5281046137428836
0.6008429717004813
0.6785279309038935
0.7623098820069202
0.8658945881524931
0.9989789280657672
1.169952859314902
1.2920024116151465
0.2963278433612252
0.2956553242537505
0.2961205806859165
0.2934728690593944
0.2936802651048013
0.2992818868017068
0.3135877146446714
0.3393270592549729
0.3765962727053378
0.4248816811344469
0.487774712016413
0.5606512088284138
0.6412025445044933
0.7283220784657447
0.8241396346168381
0.9483605099313492
1.1193270129800923
1.3046810092941976
1.3740063252843706
0.2944988244928525
0.2934088407358166
0.2932405579720961
0.2911617863656286
0.2929869336343464
0.3005502181329042
0.3182307609067694
0.3475701916577294
0.3883910274408549
0.442088803322948
0.5122102271457253
0.594530616986
0.6825320485885241
0.7803064974640366
0.8935789722690236
1.0434333229898185
1.2472031514918502
1.435531861615945
1.4010537070453422
0.2931345408810868
0.2907248127976802
0.2904039134964775
0.2892982287381189
0.2923954921385436
0.3020871081976484
0.323382221319244
0.356177318232272
0.4007483209643616
0.4594509432688721
0.5356414980197638
0.6260824957361253
0.7227828023383345
0.8311660322017356
0.9614755521513568
1.1483924873977596
1.3904847579681463
1.5676847606968345
1.3245003015300287
0.2920002878714887
0.2878788267563861
0.2874244590909571
0.2874239958241061
0.2920712623684169
0.3042699895729077
0.32853865513978
0.364451565726418
0.4141613126335974
0.479058447534684
0.5615017810092471
0.6599251440396953
0.7667234830603069
0.8858291054791569
1.041262316451259
1.2684795683756511
1.5317274028515158
1.6069924837497598
1.2114533377863783
0.2905387408341406
0.2853766683869618
0.2846691748355232
0.2854876471893545
0.292295493929571
0.3069846000134301
0.3333703350177799
0.3717020597240726
0.425754552541542
0.4979829534589883
0.5867950045838488
0.6928075471821072
0.809759360046766
0.9427539058735944
1.1296758295571363
1.3944846121500536
1.64827879378545
1.577052521433501
1.117573470879674
0.2887290849410267
0.2823601256324892
0.2822697563771055
0.2840733757105735
0.2925812092238528
0.3092082967182536
0.3372719050043012
0.3786174307805834
0.4363936658131878
0.5152939839700541
0.6124401393139494
0.725327666741655
0.8510287520165807
1.0060896228035143
1.2216701118889532
1.5047968067852084
1.7287608858640973
1.558901006849565
1.0185584430266874
0.286784367850169
0.2793891405449443
0.2799599686670078
0.2828693302557247
0.2927788879893513
0.3114165085986615
0.3417409607406869
0.3859826699972543
0.4480749554542196
0.5323102589056545
0.6360193832095479
0.7563487946743512
0.8886757029708332
1.064884311704046
1.311582212783048
1.6022889558063194
1.7385917391932604
1.4745825518413034
0.92249510010389
0.2845902727098123
0.2765147433267138
0.277256127116208
0.2813728630728408
0.2928431626110665
0.3135515212697046
0.3464643789495074
0.3930212664185226
0.4589380271423586
0.5469505192440409
0.6575269418024234
0.7867965255958574
0.927727104383321
1.1181110052804444
1.3929185851121348
1.6929986871164282
1.750451258420688
1.393610514658049
0.8406220797064573
0.2822208862698551
0.273564790382915
0.2746108790787269
0.2801785621005
0.2930957350688279
0.3154003637253005
0.3501031346854892
0.3986490832168664
0.4677848801292358
0.5607482611386024
0.6793061113349241
0.8148372429766884
0.9692119134249776
1.178847859418421
1.4822845227616677
1.789500615329351
1.7924548520328394
1.355251247500788
0.7854110669468535
0.2797810010110266
0.2709727211411877
0.2726170237599724
0.2792697483351035
0.2932817966283791
0.3170883006678193
0.3533033250529712
0.4045435142939476
0.4770547018265405
0.5759219867544793
0.698145997423003
0.8386344922606931
1.009362214723141
1.2365011564092088
1.5569401066281905
1.843019523794872
1.7918029300189948
1.3122077801701282
0.7473104098312296
0.2769036723080348
0.2683533506387
0.2706546642921996
0.2782072725711981
0.2930971280578289
0.3185765339273834
0.3569126479851413
0.4114384968923829
0.4856741004669042
0.5881244992809728
0.7160771107250811
0.8659773516695752
1.05138799414926
1.2865801185614687
1.6175682588947795
1.846846709610785
1.7247637434952714
1.24426896620142
0.7098686582332244
0.2737613824678346
0.2657752757762724
0.2685604906077833
0.2769870957328236
0.2930883206476896
0.3199807962959993
0.3600020025238908
0.417958843028142
0.4939786034358432
0.5986636537051296
0.7322196918199315
0.8886316657939247
1.0793119960505122
1.331812440317376
1.6843337869384425
1.852162173844603
1.6572006278237297
1.1772793211663712
0.6760591193230986
0.2711997160869368
0.263046373062012
0.2663723477942541
0.275931496132821
0.2932802972463191
0.3213267468850626
0.362668233408044
0.4232554849210125
0.5033958230774337
0.6121593220425584
0.7479747155371006
0.9075054926745508
1.102959471887245
1.3806861091243796
1.7486496496875563
1.878662498688964
1.6402009534782318
1.1350451896346807
0.6466227921309048
0.2689426324169157
0.2603509487336619
0.2644591494472607
0.2748814067169703
0.2936948570940019
0.3227364444733572
0.3651182878450053
0.4268896912366565
0.51046804884569
0.624373365532881
0.7642014879565072
0.9282568476864436
1.132900404693534
1.432231189096397
1.8034310312190216
1.9162074667712103
1.6427315941505332
1.1061211428776598
0.6314084486682766
0.2664926538446548
0.2581595178612301
0.2627739685378126
0.2738413694479973
0.2942777321095269
0.3242321591400527
0.3674962133658508
0.4300653834759533
0.5161458136450626
0.631913183766875
0.7733581409304731
0.9446887614023908
1.1571609507993414
1.474745406266002
1.841728083898346
1.9363944541865132
1.646510301428528
1.0847432701780404
0.616008993227947
0.2644311039039776
0.2561340070177432
0.2611013790062537
0.2732034647752917
0.2946698903233895
0.3258719741200231
0.369611859922841
0.4330964523928838
0.5236032554842039
0.6405701898767459
0.7825028582780224
0.9602204064967014
1.1747162357031895
1.5038019652337726
1.871410444478138
1.9552974127517369
1.649231474440969
1.0657971383362852
0.5987824352839124
0.2623476114449505
0.2537869563062575
0.2594165696538686
0.2726650829654382
0.2947535652624751
0.3270410376889451
0.3713374322913695
0.4366438725340009
0.5304294958300344
0.6487499727955284
0.7942886159640232
0.9735045811860824
1.1881588503632556
1.5316035087248718
1.9091816280653149
1.9765465165116476
1.6397281862727164
1.051459657379022
0.5917627950729566
0.2599830428500905
0.251416397399837
0.2577452360567875
0.2718785610969605
0.2942926915844192
0.3276746196709862
0.3728421006979676
0.4398731351407142
0.5356529885828444
0.6541771005447702
0.8004778304755873
0.9834535989405822
1.20713815186756
1.5606097967815578
1.9384050521548863
1.989276615377392
1.632571480052227
1.045042082316206
0.5902257892222001
0.2576121474465907
0.2493840911406428
0.256320827111099
0.2711021877435711
0.2939113728782776
0.3283318380802087