/*--------------------------------*- C++ -*----------------------------------*\
| =========                 |                                                 |
| \\      /  F ield         | OpenFOAM: The Open Source CFD Toolbox           |
|  \\    /   O peration     | Version:  2112                                  |
|   \\  /    A nd           | Website:  www.openfoam.com                      |
|    \\/     M anipulation  |                                                 |
\*---------------------------------------------------------------------------*/
FoamFile
{
    version     2.0;
    format      ascii;
    arch        "LSB;label=32;scalar=64";
    class       volVectorField;
    location    "0.0079";
    object      U_LES;
}
// * * * * * * * * * * * * * * * * * * * * * * * * * * * * * * * * * * * * * // 
 
dimensions      [0 1 -1 0 0 0 0];
 
internalField   nonuniform List<vector> 
13597
(
( 17.81539915167294 1.9422732721163525 0.1139269197646013 )
( 17.82043442373063 1.9896713692002532 0.1122999807376211 )
( 17.84011148575405 2.0864547740957025 0.1077017153130984 )
( 17.8718196158085 2.2110832839493217 0.1012516889084856 )
( 17.900295995751865 2.317933171577366 0.0962637302299991 )
( 17.920573516374947 2.405516664959869 0.0935387598540295 )
( 17.943735030492405 2.4912427979307803 0.0911396802912929 )
( 17.970534452224204 2.5830503757229524 0.0894468910534398 )
( 17.99959736010161 2.675513015229796 0.0878618254397031 )
( 18.030442065608845 2.7667722854023524 0.0866859790518947 )
( 18.063407271905703 2.8667500937905137 0.086535322146329 )
( 18.101685801352065 2.966585131416844 0.0855100124792309 )
( 18.143364870729727 3.063265243081858 0.0846822581092528 )
( 18.184388651802063 3.165442398045951 0.0841933233893506 )
( 18.22386394450774 3.270574975309303 0.0840620677191443 )
( 18.2659896351413 3.3730747523132765 0.0851329435109138 )
( 18.312623392128017 3.4690319732433275 0.0865377634215866 )
( 18.360646784244565 3.5638752827963533 0.0870863085865756 )
( 18.4092704952994 3.66309090941258 0.0860242857867759 )
( 17.701900064999386 1.982141993080088 0.1371666316510207 )
( 17.690892891609618 2.0432390557468514 0.1398330816715438 )
( 17.69234423753612 2.1696243910973005 0.1406037170606224 )
( 17.69900520399703 2.314104023503871 0.1396646677021132 )
( 17.70007739605166 2.425754051754584 0.1403967873835319 )
( 17.697747585913174 2.5293715333793934 0.1420521334703252 )
( 17.699489993557638 2.6335273802339345 0.1422477106222831 )
( 17.701525161821916 2.7420064944128684 0.1425396827397239 )
( 17.705970146337254 2.8523308856066203 0.1415911678289612 )
( 17.71162557069459 2.9615177942202155 0.139833572921973 )
( 17.717137031682366 3.081211662842518 0.1371292767249221 )
( 17.72156800157739 3.208093591659549 0.1324922631307052 )
( 17.725525813996622 3.334591233509131 0.1269209235034836 )
( 17.732847312184308 3.4641120421378258 0.1200059977852912 )
( 17.739782879972307 3.5908810566143066 0.1124856390176537 )
( 17.748226143757567 3.7095045952269943 0.1054286832502227 )
( 17.758012915935897 3.817310619650402 0.0986830459571026 )
( 17.767708963236824 3.926254071099788 0.0914322395083899 )
( 17.782733054595038 4.034114478271029 0.0836160159513602 )
( 17.576037156609512 2.0165366542439584 0.1637831398153798 )
( 17.54200623532751 2.0893891404896245 0.1716944843952984 )
( 17.517583605491513 2.23515504074732 0.1763057307504687 )
( 17.492988623262168 2.391644294118735 0.1783171170593001 )
( 17.463485621308717 2.5087073539279894 0.1804117674124428 )
( 17.437613592759362 2.62495909207894 0.1807951404492152 )
( 17.41489725544296 2.7443238725894026 0.1779800446769198 )
( 17.385416166891492 2.8644791426494867 0.1738793711553759 )
( 17.358717893101655 2.990014842549713 0.1668365184326128 )
( 17.335423008338676 3.123615884967978 0.1576957955560256 )
( 17.308996547101017 3.263230586511094 0.1469513930413573 )
( 17.28112939341968 3.4120701121369463 0.1340605038323353 )
( 17.25493853750112 3.5644417533372463 0.1196298553828449 )
( 17.23242899328984 3.709872766561647 0.1046585821012264 )
( 17.2128573542667 3.841786751852774 0.0910943697683485 )
( 17.196258223326968 3.9587452487203967 0.0787748989896926 )
( 17.177762692053737 4.063822113791723 0.0674887900544423 )
( 17.15847413860991 4.168844871153943 0.0565828829174137 )
( 17.14851506870467 4.2770343053620685 0.0462974400712509 )
( 17.43031390463691 2.044676804944755 0.1924419677796553 )
( 17.37110983759322 2.127335956073147 0.2028606759685892 )
( 17.319344824962943 2.281260860857599 0.2069304851712708 )
( 17.262235016043718 2.443943276743689 0.2063846293542104 )
( 17.20006314884991 2.569294126108128 0.2041969613972002 )
( 17.143802346564602 2.69272906389237 0.1984109602084302 )
( 17.08594899459915 2.824342491102708 0.1883613510335727 )
( 17.023712303435822 2.9577312204240456 0.1757656318968339 )
( 16.969423814332362 3.0965418811572363 0.1603385818584542 )
( 16.91826055778087 3.244943072824928 0.1424322925275819 )
( 16.86202759470563 3.4014653939522104 0.1222741524993416 )
( 16.812050051195286 3.563307597913364 0.101350407955207 )
( 16.767706809072333 3.723434820813388 0.081300022075814 )
( 16.72202472504418 3.8766925241075305 0.062209121047183 )
( 16.677664646820485 4.008327876446878 0.0467663190029176 )
( 16.637185169395305 4.120669585524428 0.0344543765754121 )
( 16.5980802139809 4.222618069016214 0.0241666757475262 )
( 16.55697993719969 4.325831879577479 0.0149447930685444 )
( 16.52093010131084 4.439926684973979 0.0062271939021386 )
( 17.272077567371312 2.0649878275656155 0.218912629802192 )
( 17.19133247122578 2.1564851611860845 0.2266079660967519 )
( 17.111282444444115 2.3178514330802678 0.2255718299118166 )
( 17.021202795286147 2.4816894594373515 0.2188819037655864 )
( 16.92961526814705 2.6117500012861257 0.2087927646013889 )
( 16.843758917141344 2.740682489817708 0.1945988003158349 )
( 16.75389087932099 2.880588011152493 0.1759996316156289 )
( 16.664849002599382 3.0239635141863115 0.1542761662496347 )
( 16.584835412029495 3.1684983408063223 0.1316081185112151 )
( 16.50623640325141 3.323609172428215 0.1075390339878589 )
( 16.426275059475017 3.4933445177218103 0.0822933727477576 )
( 16.352385752623935 3.6657969136179696 0.0588963959736485 )
( 16.282322650928908 3.832119750907588 0.038405565948134 )
( 16.211556480676762 3.9880472189017486 0.0206425594260767 )
( 16.141520706119344 4.116152045601867 0.0073540238176876 )
( 16.074585150809153 4.231124990359386 -0.0027686139967337 )
( 16.012120104314988 4.34091952839817 -0.0103808122486509 )
( 15.951243366631552 4.450532897908954 -0.0162800076840543 )
( 15.892390031506304 4.5733500402240965 -0.0212886021888725 )
( 17.109477034149233 2.073838884777223 0.2383943166480564 )
( 17.006675335503104 2.1736289178219166 0.2403353272248522 )
( 16.89533724543435 2.3450430481723266 0.2306558584138312 )
( 16.778554434204217 2.5086681735370866 0.2154908476871995 )
( 16.66465465837618 2.640702573361141 0.1971807512934528 )
( 16.556136537332105 2.775060436142585 0.1749223659337692 )
( 16.446590134083163 2.9163531714541056 0.1496669776162602 )
( 16.33502307697699 3.0624135427359573 0.1221728907664621 )
( 16.224229421880064 3.212943608609267 0.0950440195137488 )
( 16.116809618813445 3.380697202416718 0.0679427886822605 )
( 16.016119325595756 3.557451172796574 0.0430690975053602 )
( 15.915707897528891 3.733793119448357 0.0219125157515079 )
( 15.82025632726434 3.905962879734538 0.0039650106425988 )
( 15.729743503639591 4.0619715585087794 -0.0095919981012262 )
( 15.6386605129115 4.192667002457923 -0.0189683506211461 )
( 15.55499888234315 4.308365591995212 -0.0253950064148155 )
( 15.474483271025514 4.420192259558998 -0.0297880033585888 )
( 15.394999857110296 4.533265251402182 -0.0326916197356126 )
( 15.318057208496349 4.660802276513748 -0.0339732868577156 )
( 16.93829603848047 2.076399935922899 0.2499315327083751 )
( 16.816390379753344 2.184551168508408 0.2447033317235186 )
( 16.68219430326456 2.360949050436044 0.2255267543085868 )
( 16.544040426935666 2.5213513695795537 0.2007800472744764 )
( 16.412223167505168 2.65299653185609 0.1753925953058748 )
( 16.2819167205848 2.7882644051235603 0.1474823655562831 )
( 16.152505902089928 2.9318635560499886 0.1178242681365669 )
( 16.021556160984066 3.0819942719194158 0.0879718237671988 )
( 15.886259291307706 3.236612044765712 0.0600244530746207 )
( 15.760962263234353 3.409153231540634 0.034891676249947 )
( 15.638584452013609 3.5920580887476974 0.0126154562636182 )
( 15.513136974089363 3.775421619835572 -0.0055037565621409 )
( 15.397610608787607 3.947810249323008 -0.0187722441405573 )
( 15.28834657905118 4.101789183668925 -0.0283320043840544 )
( 15.179447613011794 4.237752477197874 -0.0343051921942323 )
( 15.077403747015108 4.3525973297846585 -0.037143293576035 )
( 14.980360376982595 4.463288587157972 -0.0385322443640763 )
( 14.883328577281857 4.582409743245584 -0.0386149404823434 )
( 14.789225300071228 4.714756181725307 -0.0374337465384834 )
( 16.77353893210324 2.073014456825545 0.2535466584296004 )
( 16.63460715771912 2.1834531565613204 0.240384892033505 )
( 16.482468517696578 2.359353610499916 0.2124883872701511 )
( 16.326566637856256 2.51721042393096 0.180354943283558 )
( 16.17606503704425 2.6495209078384927 0.1491285673855771 )
( 16.02661841930834 2.78702377108441 0.1179580829229673 )
( 15.87660670609016 2.934135773564749 0.0867789994964872 )
( 15.728589117624596 3.0843541523635585 0.0574263776677659 )
( 15.574100287714495 3.2416653158586457 0.0309898052383166 )
( 15.42983369248948 3.4204830194492617 0.0087764707281678 )
( 15.284864955925958 3.608911522100827 -0.0098095303592646 )
( 15.141173108093987 3.797641921286212 -0.0243439481022324 )
( 15.007435203788578 3.971646304159152 -0.0334379122526025 )
( 14.875592832451735 4.121218577561049 -0.03897049631122 )
( 14.75371616245923 4.251515874481279 -0.0415986050619541 )
( 14.635389086439057 4.368002052257399 -0.0421741925502062 )
( 14.521355811256573 4.484156372119528 -0.0414886889435373 )
( 14.409473813884674 4.610836269648924 -0.0395556317398903 )
( 14.300626891446605 4.749407266633914 -0.037091227091592 )
( 16.616982411821166 2.05787920923103 0.2492854683596674 )
( 16.46188978366045 2.165997344337428 0.2280049771662825 )
( 16.292886678108673 2.3411784703311285 0.1931686450929822 )
( 16.123988805314024 2.4969600914067493 0.1569603152289783 )
( 15.955167503465022 2.633116646167303 0.1221482282713186 )
( 15.791519419341125 2.770590814602764 0.0899360762578333 )
( 15.62661902866162 2.915848727172527 0.0596667689368084 )
( 15.463532121760403 3.0717899437283744 0.0322962438040231 )
( 15.295563730610938 3.2361403757751805 0.0090105385491322 )
( 15.122387715996974 3.416978729139609 -0.0110143827433379 )
( 14.9560665815748 3.6086955611316687 -0.0258011566736355 )
( 14.799349772867032 3.7976444917084655 -0.0359434587983545 )
( 14.64409288972442 3.9728628302987934 -0.0421388444303476 )
( 14.4944066026441 4.12331569164258 -0.0445677403817588 )
( 14.360161871163347 4.250932893517168 -0.0448276177673689 )
( 14.226651632618465 4.37148052321715 -0.0442532013005012 )
( 14.095786619095213 4.491729885618152 -0.0422455530197745 )
( 13.967962918601 4.6223154084788005 -0.0392951674870196 )
( 13.841905480843105 4.767353088599772 -0.0358082486675555 )
( 16.465426041522775 2.039120653852844 0.2390327369863437 )
( 16.298563435933865 2.150707046344753 0.2100972716835361 )
( 16.11599634120846 2.3226970527625106 0.1702175786518207 )
( 15.934124906365565 2.470549577007127 0.1324868264728206 )
( 15.75411659524212 2.608230469839948 0.0974392172549613 )
( 15.57768597513651 2.742302045401113 0.065652939501545 )
( 15.3944479622048 2.8830775875082555 0.0364671912753617 )
( 15.20865585006609 3.042229461555859 0.0108301669397315 )
( 15.026847917096138 3.208880582015862 -0.0090799221189485 )
( 14.837742178915132 3.3918324862067712 -0.0251363903729406 )
( 14.654826997393746 3.590950756421201 -0.0364687623548429 )
( 14.482482426340306 3.784629678706742 -0.043270181388892 )
( 14.310985203434072 3.957594774378409 -0.0466959722500194 )
( 14.149688652867953 4.109291104550678 -0.0471622770220897 )
( 13.998384079186073 4.239422854229528 -0.0462468623569445 )
( 13.84700031181896 4.361038940112005 -0.0444164781974742 )
( 13.696214312753945 4.483591222258887 -0.0414453214873007 )
( 13.550437238706468 4.6170768105129945 -0.0383924914809867 )
( 13.408875217703953 4.76945037138093 -0.0354975921857448 )
( 16.33025837255993 2.017895701349303 0.2242048738038537 )
( 16.15602501155381 2.1314469804175427 0.1907643206577367 )
( 15.954036519317231 2.298726457953381 0.1475643403797836 )
( 15.762357878897657 2.437688913746775 0.1092105813060264 )
( 15.572417743490902 2.571008410816075 0.0751257671285832 )
( 15.378330597647768 2.703979981518757 0.0440800375292261 )
( 15.178471163195612 2.840927435645586 0.0164377443944667 )
( 14.97793786762975 2.995746813316432 -0.0061175374689068 )
( 14.779246484824291 3.168576799793025 -0.0230710162895564 )
( 14.57927431297988 3.356022430994217 -0.0354687644097414 )
( 14.380687573105998 3.55710317620976 -0.043651376958704 )
( 14.18639449302216 3.75881953648046 -0.0479797792746446 )
( 14.004553406471215 3.9311384791572 -0.0489757010567685 )
( 13.831571163124968 4.083675530281039 -0.0480317197768282 )
( 13.658964131527249 4.217921622278991 -0.0460944006537785 )
( 13.486253937500736 4.340413710556702 -0.0438296054786614 )
( 13.31713841357324 4.4666275305006495 -0.0415523547697875 )
( 13.157849091601104 4.605521724986095 -0.0393937012757975 )
( 13.001603834537123 4.7669606149350905 -0.037128995553967 )
( 16.204777793073905 1.9896536970478835 0.2049830324021525 )
( 16.01896189149772 2.1029787909033124 0.1690037375966337 )
( 15.802411828953456 2.2670229844121628 0.1255493940999216 )
( 15.60252970806647 2.3971482408827067 0.0881032031704496 )
( 15.399618560004097 2.52286577207336 0.0550906352648334 )
( 15.189658525268989 2.6558434930448245 0.0251329101725035 )
( 14.98236885641774 2.798057483320523 0.0005363397361293 )
( 14.769951360601468 2.9546713951817742 -0.0187335856832207 )
( 14.555168689311888 3.1298954153789382 -0.0332758849423978 )
( 14.33993875203132 3.318229643117372 -0.0433369007522232 )
( 14.125539342644736 3.517870205969972 -0.048536874032164 )
( 13.913790524505773 3.717388735323821 -0.0504587164139221 )
( 13.714405886859325 3.895337449294478 -0.0502785233467881 )
( 13.52315449447494 4.056053417348824 -0.048652638639458 )
( 13.330135535370305 4.192643024131908 -0.0463587767439662 )
( 13.14188376341938 4.313885564566688 -0.0445141030495134 )
( 12.961740196178187 4.443287657840751 -0.0432408472875025 )
( 12.790333287830464 4.594042951921995 -0.041376138503171 )
( 12.620640549669648 4.767367206093499 -0.0382618273966624 )
( 16.084743357909385 1.950743568743566 0.1839099895943378 )
( 15.889690637087902 2.064460518120786 0.1462515935274823 )
( 15.666711315164696 2.2257204044995462 0.1043120832755036 )
( 15.454749903010844 2.3535181855586376 0.0684919201644222 )
( 15.241583755623534 2.4794428693419275 0.0371880575087548 )
( 15.021472191556162 2.612248501666961 0.0095544862976275 )
( 14.80314153316506 2.7547569462026757 -0.0121308182393 )
( 14.574822134603044 2.9096893182511363 -0.0287158685325369 )
( 14.343127757225185 3.081684807140668 -0.0407518714311645 )
( 14.115637419283985 3.2742412596973067 -0.048421441116948 )
( 13.88494942075516 3.481821103924791 -0.0517658294384661 )
( 13.658264006930771 3.6800276877083866 -0.0522597774359745 )
( 13.43746937359234 3.860275648275559 -0.0511743100674477 )
( 13.22189778637952 4.023464199717196 -0.0492312899263776 )
( 13.01661293470157 4.156240407792899 -0.0478313163712594 )
( 12.822262925438377 4.280742253223462 -0.0462924400347093 )
( 12.631131027245326 4.419590827369345 -0.0443444145771335 )
( 12.443045062309182 4.580617000361843 -0.0411905815488242 )
( 12.251710704360216 4.76823728827467 -0.0362069926456887 )
( 15.975065070527837 1.903094777721236 0.1629815005110882 )
( 15.777546627205556 2.017784740161656 0.1259424891332551 )
( 15.543481394980391 2.177288169559864 0.0847762245507778 )
( 15.320121031813052 2.3037308528272926 0.050496170591073 )
( 15.09613372181297 2.4301106047288648 0.0215614227582783 )
( 14.869951353922012 2.5593754285402657 -0.0027487631950836 )
( 14.638944420739438 2.6997427862968277 -0.0222762479470388 )
( 14.401569379414406 2.8538151235032454 -0.0364415179865723 )
( 14.154118897170758 3.025009001224505 -0.045995949841897 )
( 13.907670247534742 3.221426128222506 -0.0520034680277751 )
( 13.659758550954926 3.4341273782747064 -0.0545786190329483 )
( 13.413118942623589 3.6400899737634114 -0.0541862440388393 )
( 13.17469379099741 3.8250746502452855 -0.052013535805271 )
( 12.94597887019412 3.981882198892375 -0.0502239452875411 )
( 12.729706657869166 4.113929783296809 -0.0494552773346538 )
( 12.52101354012846 4.250016847546832 -0.0473395654271655 )
( 12.315292523068916 4.404848513791047 -0.0438970139814365 )
( 12.103309052750008 4.570784594861056 -0.0390128853069725 )
( 11.88171249297098 4.765602620800864 -0.0326849681754221 )
( 15.87742364564747 1.855182213421148 0.1418885357842099 )
( 15.671415799971175 1.9705825426836323 0.1062321854683832 )
( 15.418088254372144 2.129843410516993 0.0662876058404059 )
( 15.18685755688002 2.2491284831515475 0.034158148942156 )
( 14.957826696323968 2.3711682668153427 0.0079808982298338 )
( 14.726529567126898 2.49897763630455 -0.0133554012192547 )
( 14.48342883905285 2.637433581574864 -0.0306188045231345 )
( 14.232150273369532 2.794303882077533 -0.0429930649835942 )
( 13.97482106066481 2.9661405444695914 -0.050954250206717 )
( 13.712194523075512 3.1609452635092885 -0.0556652271427051 )
( 13.443009702785387 3.3780342390043803 -0.0573660195108432 )
( 13.174157385102784 3.5881128882430584 -0.0556696722668552 )
( 12.918109690104025 3.7788659599105374 -0.0529657652675889 )
( 12.682213307294523 3.935531631878452 -0.0516962510721219 )
( 12.456810315132548 4.071814672302423 -0.0500969091591725 )
( 12.23208233853595 4.21743127679354 -0.0469459718673411 )
( 12.001664938530515 4.381282209981141 -0.0425290637026575 )
( 11.762718812839584 4.561318657783166 -0.0366220412831778 )
( 11.536410668451742 4.78191644433214 -0.0310530749356594 )
( 15.78825051767689 1.807905612117935 0.1216070312905716 )
( 15.572867848241223 1.921272909998106 0.0870130404701075 )
( 15.306982837399014 2.077167994144784 0.0499930761510664 )
( 15.066912411389378 2.189375048784937 0.020345999802966 )
( 14.831972350524808 2.303670374578458 -0.0036549727952559 )
( 14.592680074918512 2.436087173044453 -0.0224612941714901 )
( 14.339359185072643 2.5711457248015046 -0.0375039708591047 )
( 14.07150109671644 2.723405262390289 -0.0481711387873153 )
( 13.800230240662955 2.902367950506483 -0.054697917540345 )
( 13.523085269057232 3.096538040602089 -0.0580433876296035 )
( 13.229474313382548 3.321116509042211 -0.0586561118301783 )
( 12.937489660623886 3.539731537781568 -0.0567473608504948 )
( 12.674203813367654 3.726336250638033 -0.0544932479320045 )
( 12.43475456710914 3.8837056863679416 -0.0521986699109525 )
( 12.197113086855984 4.029055866310706 -0.0492291196293224 )
( 11.951975201750765 4.18270199864574 -0.0459268005227545 )
( 11.693836837483037 4.354229334013792 -0.0406963209030812 )
( 11.438825196509642 4.559862373111394 -0.0359069073756911 )
( 11.241647122451496 4.834743742958263 -0.0321757883586545 )
( 15.707143161166425 1.7588838234898023 0.1032665699320608 )
( 15.47911226878376 1.8674721479583056 0.0696039811862502 )
( 15.206060725754371 2.021921730135761 0.0357870492917652 )
( 14.963840361158873 2.130579047647554 0.0088453692697034 )
( 14.720377232877343 2.2413894164807378 -0.0128435912012675 )
( 14.466636334216709 2.37175356402269 -0.0299697317749539 )
( 14.200651501152995 2.5017991216416022 -0.0437285338061567 )
( 13.927422260888385 2.653028689369726 -0.0523663439171378 )
( 13.640628696998608 2.836532246315737 -0.0573671292803736 )
( 13.340705554784996 3.0287575978837524 -0.0598185877919111 )
( 13.036003500841764 3.250819505043385 -0.0593929657158836 )
( 12.730438603601035 3.485329956521323 -0.0573440215000701 )
( 12.456902101669552 3.6747580213148776 -0.0544654057834627 )
( 12.203634195312675 3.8300194891542794 -0.0509010824654301 )
( 11.943997205199514 3.984057210299815 -0.0481926918914573 )
( 11.668704417711952 4.143919318457707 -0.0447576156164782 )
( 11.393704696137434 4.334026217980014 -0.0400316968250789 )
( 11.154132178317017 4.581426484565629 -0.03735896311623 )
( 10.99762850517786 4.913618426718228 -0.0326098735515802 )
( 15.62829523568545 1.7079402568691606 0.085430704989348 )
( 15.39190319614892 1.8122751859963635 0.0540040098561911 )
( 15.111732269374825 1.9616996160094289 0.0228450904031382 )
( 14.868776481138868 2.06666236654185 -0.0011959295848235 )
( 14.618892560604948 2.179668172900378 -0.0206788501797167 )
( 14.35225154599292 2.3069577950142004 -0.0363619781329665 )
( 14.07677479892738 2.4280376796023515 -0.0489704301224964 )
( 13.792829110508077 2.5825371488552817 -0.05613311351306 )
( 13.488862655618552 2.7707644663626567 -0.0597446959010043 )
( 13.17171740007558 2.96795802580461 -0.0612455545773522 )
( 12.848862877078965 3.1850253662049317 -0.0600012241732135 )
( 12.530462642238806 3.411111335207782 -0.0573567476801031 )
( 12.245721107663902 3.6077882214597863 -0.0536975303815497 )
( 11.971742139009942 3.774376830045835 -0.0497235890628691 )
( 11.686712215436676 3.928529588094116 -0.0468801580810233 )
( 11.392770121420703 4.098085352193286 -0.0430469505278871 )
( 11.114485541688136 4.318927371924669 -0.0401758356722253 )
( 10.910346279249062 4.62307163190022 -0.0379157174871868 )
( 10.753595541371617 4.990538121735419 -0.031372607147985 )
( 15.555987992944186 1.654623125257728 0.0686650007556206 )
( 15.313973116539012 1.754183657696512 0.040131115237839 )
( 15.02338396132167 1.8947528585138156 0.0114197384643441 )
( 14.779165650621596 1.9996991531205712 -0.0101219781987894 )
( 14.52167736280575 2.1102884161306785 -0.0276754377362497 )
( 14.241883767424842 2.236674967315208 -0.0418920191431801 )
( 13.966566363543803 2.3587729219925926 -0.0527991494700047 )
( 13.668827316258588 2.506557952746593 -0.0591643670801102 )
( 13.344097075565733 2.6958257142662982 -0.0622320914517497 )
( 13.008818544653511 2.902342741751396 -0.0627159828763505 )
( 12.663549154435422 3.124959226952271 -0.0604382341157184 )
( 12.33944310463258 3.3417949073052293 -0.0578886909173241 )
( 12.036998592977334 3.534829875941454 -0.054773726217719 )
( 11.737892128755776 3.710360306932673 -0.0498866034406655 )
( 11.438919190782729 3.874426077726154 -0.0454598510651473 )
( 11.139570987335476 4.069162037639503 -0.0414315285956339 )
( 10.870471696679273 4.332293066658992 -0.0402276995600788 )
( 10.684631706332295 4.6808516932729285 -0.0379194994607667 )
( 10.419851866565352 5.014119594264167 -0.0316356640595983 )
( 15.493846207115078 1.599696119252826 0.0545624843269478 )
( 15.240720307949577 1.6902225839164526 0.0274980126291032 )
( 14.941745239986732 1.825223361746114 0.0011429790400058 )
( 14.693221700165411 1.9300435609061 -0.018079473722864 )
( 14.429353960158103 2.04016850522356 -0.0340419640158702 )
( 14.140568646115756 2.1689523669603856 -0.0468953448987252 )
( 13.854142896550188 2.291094696789908 -0.0558040236128027 )
( 13.549340260077193 2.431742989868167 -0.0611250086797895 )
( 13.212975878498485 2.6152029108708663 -0.0638666139921211 )
( 12.8569691784107 2.820495691943265 -0.0641013577272953 )
( 12.495331205910675 3.053415200393007 -0.0613724313815632 )
( 12.160871765664812 3.2779508048439183 -0.0584700978027455 )
( 11.83591823085096 3.46749597896587 -0.0560953451861631 )
( 11.516976309687209 3.6403737504950304 -0.0511049947012632 )
( 11.201168197822613 3.831588402144925 -0.0449872381338091 )
( 10.897705882745024 4.0572630454924505 -0.0416885641958507 )
( 10.65026079909 4.360894673198289 -0.0413053645759211 )
( 10.417907751376031 4.730373084749073 -0.0359308271457914 )
( 9.951982917750517 4.958978184433904 -0.0312779061645884 )
( 15.43250639964253 1.5384399188902391 0.0413118452370032 )
( 15.17610921607593 1.627489940335448 0.0163418725560827 )
( 14.874204822209364 1.7563607018606986 -0.0074582390889812 )
( 14.614778587399543 1.8530740932080576 -0.0248984757563056 )
( 14.344412259079498 1.965336100363393 -0.0395746478280477 )
( 14.05076533857133 2.0984952350692923 -0.0511136801107433 )
( 13.750560137445657 2.216715949782193 -0.05840730656187 )
( 13.439201291738774 2.352068050188999 -0.0628546952831956 )
( 13.084505584643328 2.536538060976713 -0.0647561229982376 )
( 12.712591908938418 2.7432410567079297 -0.0649364824360221 )
( 12.337354759698297 2.9764293513537297 -0.0625321616726545 )
( 11.978220082937783 3.2068444355921173 -0.0590429475579188 )
( 11.642921805052325 3.404525740423383 -0.0557704332908072 )
( 11.31760581351032 3.579304524081637 -0.0501227534898082 )
( 10.983408258394048 3.7911897228892935 -0.0453599401600078 )
( 10.670931375909849 4.053791455019876 -0.0442203251424448 )
( 10.429997753774884 4.391234986468932 -0.0411118353079602 )
( 10.101444602927485 4.748470643948932 -0.0338692350394889 )
( 9.32423140807783 4.795822779562111 -0.0308625556589994 )
( 15.374303658678082 1.475247593865765 0.0280668559891067 )
( 15.116897766101989 1.565783756255866 0.0066562215726415 )
( 14.81152910847291 1.6920857212002522 -0.0145884896544701 )
( 14.54703551425576 1.7848509130244317 -0.030748903387011 )
( 14.266155939738423 1.8941161211865445 -0.0438752225456177 )
( 13.957686152719344 2.017800579739395 -0.0544617593840779 )
( 13.64830827184326 2.135598356737083 -0.0610764043627732 )
( 13.330798224163903 2.2690405280812773 -0.0651479846020917 )
( 12.951820065832637 2.455368563886605 -0.0663210660270164 )
( 12.564825563644527 2.6703961307447885 -0.0655270337554353 )
( 12.186627025518028 2.899516588147031 -0.0628840169981371 )
( 11.817459964250574 3.1324408001220285 -0.0588181215062737 )
( 11.46898364586297 3.3409516301267743 -0.0544375965052848 )
( 11.119069960048408 3.525088175849536 -0.0480101223056109 )
( 10.776928413717387 3.749004648798956 -0.0440347261814079 )
( 10.466723295874331 4.048162029976773 -0.0433078748302511 )
( 10.17730933706006 4.413719657616602 -0.0392974950415167 )
( 9.761228629490226 4.738489745730852 -0.0346370961709966 )
( 8.482634709417919 4.477983606470581 -0.0287059751328729 )
( 15.321128276197626 1.4187131878113863 0.0163417327227776 )
( 15.058017355563177 1.50547832596664 -0.0025820842912751 )
( 14.749399733230542 1.6277938151080056 -0.0215539108697729 )
( 14.484824822584068 1.7205558901471771 -0.036060205187689 )
( 14.193841815120908 1.8236865736691403 -0.0479417361051906 )
( 13.877012692659791 1.9372176063497195 -0.0575131552874661 )
( 13.559363994711806 2.0602000621336765 -0.0632432877937195 )
( 13.225997164612387 2.201491516096208 -0.0665107546829855 )
( 12.828013140805506 2.381735699733103 -0.0676356499141173 )
( 12.420412938924205 2.599087378539975 -0.0659887668616251 )
( 12.035181515570589 2.823770514143612 -0.062127213328116 )
( 11.664121097597196 3.044387574219924 -0.0579863797324764 )
( 11.298508872263364 3.254260327993834 -0.053231175915118 )
( 10.926395305046684 3.45838364654436 -0.0475662999084618 )
( 10.574223667820329 3.708085710947035 -0.0424985682988827 )
( 10.2572654056502 4.037724320695398 -0.0390179204112472 )
( 9.891206629104447 4.413444555556672 -0.0356947806245939 )
( 9.23412595233738 4.610931055007471 -0.0310873879235194 )
( 7.636078986110844 4.122665712722027 -0.0229176694166817 )
( 15.274471616817086 1.359837633801403 0.0065141246606778 )
( 15.006514879444062 1.445645168564383 -0.0107103048991824 )
( 14.689823632712397 1.564135361357529 -0.0277214019652717 )
( 14.422003075458017 1.650656006734976 -0.0405550734492314 )
( 14.125750497984278 1.7536526677585864 -0.0511710998240611 )
( 13.80921227856886 1.8700758281790124 -0.0604227151817896 )
( 13.488329247069917 1.992631002982018 -0.065584827751298 )
( 13.133242007036516 2.132271060196823 -0.06780506371864 )
( 12.72372752733822 2.310964012228092 -0.0688272498919043 )
( 12.307273462659769 2.5265257812773565 -0.0666163980049422 )
( 11.90370771512682 2.7497389972309167 -0.0623849271978511 )
( 11.506916366817526 2.9624880279869754 -0.0579877805867414 )
( 11.120650316001903 3.167429742567009 -0.0539427966570112 )
( 10.737569066701514 3.38584902735399 -0.04993451440632 )
( 10.379223228964122 3.668671911549767 -0.044417205819027 )
( 10.03717798842912 4.035571550342682 -0.0398027392297662 )
( 9.59946886501522 4.397116143399522 -0.0340480738253784 )
( 8.624246915928452 4.395471464108559 -0.0256104100965881 )
( 6.8866774185423925 3.7851124745839697 -0.0196218572891788 )
( 15.23309937716393 1.298510237639596 -0.0025053376948501 )
( 14.964798401444856 1.3842110406584058 -0.0176182489362492 )
( 14.639608502378014 1.501333716040183 -0.0324848447546807 )
( 14.363406257114113 1.5822713543311149 -0.0437951096322744 )
( 14.059917803804812 1.6813636858012586 -0.0541081301313717 )
( 13.740026869266387 1.7976244796134355 -0.0627321485719585 )
( 13.412083294409792 1.909633926735439 -0.0674432082674934 )
( 13.044650070976976 2.048198892596644 -0.0693034828647131 )
( 12.635096686764657 2.236772858998476 -0.0698012650963982 )
( 12.210632441111608 2.4500300541542885 -0.0674674938582702 )
( 11.784602285172085 2.676497934104274 -0.0640256346951552 )
( 11.361507671354932 2.8841228466499054 -0.0591851408751831 )
( 10.956477415136636 3.0858801025368563 -0.0560913110493339 )
( 10.552430066120111 3.323412252207405 -0.0526875398149497 )
( 10.181587951156354 3.6281323079797874 -0.0455617652841762 )
( 9.788592078442976 4.0128738541958855 -0.0414064543324024 )
( 9.252890189063406 4.330640436917127 -0.0360285151816174 )
( 8.086047596804649 4.174183017493397 -0.0246662628769389 )
( 6.17285223532838 3.4295515510276973 -0.0182876858138748 )
( 15.196623857143909 1.245136342639066 -0.0100275596130463 )
( 14.925707038746724 1.3257912050270295 -0.0234559078831485 )
( 14.594791670915642 1.4364346208902845 -0.0369620836079043 )
( 14.311642894329452 1.5162834047155922 -0.0475010454025096 )
( 14.001721916296336 1.6088960652483064 -0.0573737710281931 )
( 13.67880307185646 1.7159117249696016 -0.0646117278074387 )