/*--------------------------------*- C++ -*----------------------------------*\
| =========                 |                                                 |
| \\      /  F ield         | OpenFOAM: The Open Source CFD Toolbox           |
|  \\    /   O peration     | Version:  2112                                  |
|   \\  /    A nd           | Website:  www.openfoam.com                      |
|    \\/     M anipulation  |                                                 |
\*---------------------------------------------------------------------------*/
FoamFile
{
    version     2.0;
    format      ascii;
    arch        "LSB;label=32;scalar=64";
    class       volSymmTensorField;
    location    "0.0043";
    object      tauij_LES;
}
// * * * * * * * * * * * * * * * * * * * * * * * * * * * * * * * * * * * * * // 
 
dimensions      [0 2 -2 0 0 0 0];
 
internalField   nonuniform List<symmTensor> 
13597
(
( 0.1632657802678886 0.0423854370367599 0.0053593869722397 0.0570568750401925 -0.0209463895349241 0.1087329363525625 )
( 0.1624727198680151 0.0411484975864902 0.0044192163739902 0.057939482330653 -0.0206080675701107 0.1061860195701949 )
( 0.1625588327335386 0.0386269552705225 0.001717956771142 0.0614862710167382 -0.0205831416969402 0.1029864919556304 )
( 0.162828832887424 0.0362012527811025 -0.0017215805651667 0.068547000966931 -0.0214415037057692 0.1009284769187701 )
( 0.1638543367065277 0.0356609558689463 -0.0041506637600969 0.0748796267507088 -0.0224372823289061 0.1006422462724009 )
( 0.1664101010052535 0.0368221506812212 -0.0052358908112762 0.0790825565731923 -0.0225267640426184 0.1016945799630276 )
( 0.169155371180088 0.0389269811747663 -0.006155696402236 0.0828099559776039 -0.0221830547229279 0.1037302607904891 )
( 0.1721350185194019 0.0418374079560956 -0.0073739310349967 0.086432514461876 -0.0215895152395911 0.1071936071973679 )
( 0.1755489670047965 0.0454917942301782 -0.0076872493576434 0.0895102024813146 -0.0202715428572364 0.1124232336420314 )
( 0.1791205877675847 0.049523578034963 -0.0073577529391141 0.0920275634751547 -0.0183296087916357 0.1185883058771311 )
( 0.1840005732067127 0.0542493695629312 -0.0064806773303554 0.0941497702095049 -0.0153521122287888 0.1264490018403938 )
( 0.1893891885921624 0.0596150785030273 -0.0048942475268902 0.0964023918049199 -0.0115425744008238 0.1358590217867888 )
( 0.1948961507891121 0.065061425044867 -0.0031558243843267 0.0987701954146186 -0.0080310885877238 0.1449022640452972 )
( 0.2006255177116177 0.0703409383786324 -0.0011119789335897 0.1010833851978128 -0.0040819490475252 0.1545454123257465 )
( 0.2064318388883368 0.0753844836649429 0.0009897500091347 0.1037223225750017 0.0004818405072587 0.1642457908227403 )
( 0.2116909591368394 0.0800566375958514 0.0030974554700145 0.1061992149119016 0.0046388747065518 0.1731683905418891 )
( 0.2167566795978591 0.0839065007664281 0.0053069475985106 0.1077856466161133 0.0078214445859374 0.1810808386592214 )
( 0.2224080980243344 0.0872165155667321 0.0070338442496871 0.1094160960621989 0.0103783049244308 0.1866245736779282 )
( 0.228167333697395 0.0903886528641804 0.0090198733392143 0.1119148996520793 0.0129988769104054 0.1917942945077416 )
( 0.1483832734190625 0.0401760607382159 0.0113053570156869 0.0517180767616439 -0.0177310788642475 0.0990327401901311 )
( 0.1460690541886559 0.0391213447248915 0.0095873756812021 0.0528905230176407 -0.016745449196847 0.0968356485331282 )
( 0.1462847816671228 0.03883296990452 0.0071627682594343 0.0586380153435213 -0.0152151436755566 0.0956589810039487 )
( 0.1493709423209923 0.040806365060467 0.0055218960906554 0.0684091053812944 -0.0136811728637551 0.0989385989860916 )
( 0.1530296087855104 0.0443778384733327 0.0047799253964586 0.0761118009719195 -0.0123754579167855 0.1033598727405901 )
( 0.1573901188464633 0.0488562070373807 0.0049101962765634 0.0828732622918258 -0.0110402185625235 0.1086694157000341 )
( 0.1630987605157643 0.0543791690620357 0.005507483953979 0.0897431596773043 -0.0091272510338066 0.1152455699823907 )
( 0.1686405579220457 0.0608772656701372 0.0057511441727118 0.096966481906851 -0.0068134036108289 0.1231428882324589 )
( 0.1742297487067708 0.0678216186923977 0.0063077702537026 0.1037457852296509 -0.004064197457215 0.1321857690482412 )
( 0.18043899410555 0.0748487259262745 0.0076315407049454 0.1096793044043546 -0.0010659190422005 0.141095406751084 )
( 0.1878100857911611 0.0822400585431031 0.0087176277553009 0.1154600279853788 0.0024663068479192 0.1512033682702765 )
( 0.1950309396050352 0.0893304962191643 0.0093049409872235 0.1209656423261617 0.0064756381610955 0.1623736748436089 )
( 0.2023332766262452 0.0958818275581727 0.0095178379465342 0.1258978514378989 0.0096293344131909 0.1716756537619719 )
( 0.2100943201931225 0.1019815795973309 0.0100156120751601 0.1300995349075946 0.012564737153788 0.1802635783933169 )
( 0.2167203739122044 0.1066820755204552 0.0105163035625647 0.133382536894546 0.0154306961203378 0.1880796809717312 )
( 0.2220059155430085 0.1100796200981595 0.0106018204914393 0.1359452981882901 0.0171992637942193 0.1938965628637581 )
( 0.2261461002970919 0.1124205984985366 0.0107795548333124 0.1370798465785607 0.018032810293982 0.1980614959542456 )
( 0.2306059420751292 0.1138488988533486 0.0111753588643681 0.1375835673669682 0.0181873417576612 0.2000762319284596 )
( 0.2352215142641446 0.1147499072872535 0.0118875386671892 0.138301250962568 0.0180986413184145 0.2012346895136998 )
( 0.1351579438640936 0.0369026012565847 0.0111257866567024 0.0487269190690196 -0.015084176118351 0.0978299877762277 )
( 0.1340735694459802 0.0375389727431773 0.0091526954498748 0.0511741815044269 -0.0134055018881299 0.0974960220726172 )
( 0.1376969146481865 0.0414290325065059 0.0078121031199694 0.0595094731246911 -0.0103830671869926 0.0995514387740853 )
( 0.144126485081128 0.0480851511920757 0.0080351581189076 0.0716511585696837 -0.007134515981954 0.1077198089050916 )
( 0.1497842529218898 0.0550819606700147 0.008498792469807 0.0815045443133526 -0.0045619200475319 0.1160729215094817 )
( 0.1559739609557293 0.0628295745437955 0.0097632447353052 0.0915244948491053 -0.0026092507809911 0.1247424408353565 )
( 0.1626798122846458 0.0709537459925202 0.0114674750706371 0.1013242133542859 -0.0004699645175436 0.1341619923088838 )
( 0.1687715781751052 0.0788212474231706 0.0129300459617961 0.1108872663381881 0.0022343793614516 0.144898169857096 )
( 0.175214823629611 0.0866096984162384 0.0145003267501424 0.1198082992720964 0.0050738509996685 0.1562904100037294 )
( 0.1824124227460528 0.0942369626256424 0.0162942896486382 0.1275920102404946 0.0079096784855375 0.1667607144816283 )
( 0.189196430773954 0.1010465461484227 0.0177441685701123 0.134477694805096 0.0110142388324908 0.1767324094270108 )
( 0.1957307971401751 0.1064127322538703 0.018592936993087 0.1401329386642423 0.0140643148706107 0.186362109855236 )
( 0.2025473132226811 0.1105208303606867 0.0195619224817251 0.1440697571651481 0.0163527095816957 0.1940927175998193 )
( 0.2086833524904269 0.1133559143540854 0.0210155161958457 0.1464057619058578 0.0180310356646374 0.1993934247770639 )
( 0.2132337441911938 0.1146236716532805 0.0228120442855123 0.1473751896308934 0.0192563576111398 0.2026579129818786 )
( 0.2166199430656501 0.1148025741936635 0.0244375411189169 0.1473877438389105 0.0197801836364958 0.2040241054099019 )
( 0.2189109875629001 0.1141399443826973 0.0262200668205882 0.1465619825982831 0.0198546336840511 0.2037315011414942 )
( 0.2206328134553762 0.1126927514519726 0.0285328636453164 0.1449674308635941 0.0197923751096668 0.2019861646897996 )
( 0.222042984963831 0.1105981070622528 0.0307295643292027 0.1425785984821399 0.0194041806652942 0.1988531436363016 )
( 0.1292090170300728 0.035012610066753 0.0087216745732712 0.048803654252837 -0.012737882567078 0.1025800688406676 )
( 0.1309387413008096 0.038202253434235 0.0068774192875906 0.0528975484117089 -0.0098495482267799 0.1043965537699435 )
( 0.1360515348458329 0.0458276986168296 0.0064070705748466 0.0635676589985624 -0.0059641012212253 0.1088246143791951 )
( 0.1427041072423293 0.0557677228362531 0.0079725957491907 0.0783509108005459 -0.0024112356145395 0.1201791986822115 )
( 0.1489486388383478 0.0646811896246712 0.0103289980651411 0.0905285162744399 0.0006454138139313 0.1319477594261679 )
( 0.1553156611837742 0.0734476152928594 0.0134948239394967 0.1023789662349979 0.0030175815576332 0.1435332034422514 )
( 0.1614555905829828 0.0823064535922155 0.0169998916519707 0.11418952092065 0.0053971759153748 0.1557586042031813 )
( 0.1679641856087908 0.0901399056704621 0.0205951305331563 0.1250736946244795 0.0084277094075679 0.1685624720049938 )
( 0.1749942934749113 0.0970257611177265 0.0245334157094715 0.1343675870617129 0.0114802375206555 0.1806243085255751 )
( 0.1823047920545577 0.1028595219958596 0.0283023190861317 0.1420202341688591 0.0146168077478451 0.1917122091836502 )
( 0.1886704406602858 0.1068568984090537 0.0319076189212954 0.1474234144493994 0.0175917463557829 0.2000515189345739 )
( 0.1949340829068284 0.1088833335869432 0.0353251982938381 0.1506479225515375 0.0199710137642794 0.2055820304831744 )
( 0.2012720196688586 0.1094498352050456 0.0388666458804154 0.1513904099900381 0.0216327121327628 0.2076647391221625 )
( 0.2062521683434743 0.1088959136240099 0.0423145267641964 0.1505918603377488 0.0227259945986967 0.2071582306387522 )
( 0.21004864618947 0.107299873156539 0.045368146893279 0.1491281519425802 0.0234171777030844 0.2047528912496392 )
( 0.213119424989825 0.1053509630140294 0.0480706612545596 0.1467501336135687 0.0236302694626159 0.200757439015139 )
( 0.2151980058837762 0.1029890116727691 0.0503902816634311 0.143755009847454 0.023564032630917 0.1956258167971526 )
( 0.2172747599792597 0.1004903229653553 0.0524882273958382 0.1404857825820658 0.0234326628940782 0.189225040712248 )
( 0.2192459772657247 0.0976662573170987 0.0543325996323302 0.1363640671160606 0.0230119566288811 0.1814995393868397 )
( 0.1283524257562127 0.035433742997099 0.0050494534326186 0.0513533828712277 -0.0106115171525647 0.1106915312379138 )
( 0.1313077273457042 0.040876031611124 0.0035783709443599 0.057273131321116 -0.0069589063591052 0.1129708834058713 )
( 0.1359208561191855 0.0511880587980978 0.004984325278613 0.0703068537456973 -0.0020699911076432 0.1200811129768476 )
( 0.1417806279109858 0.0628473646220696 0.0089821812887225 0.0871117380197336 0.0020886338552899 0.1349608902327245 )
( 0.1477525620073119 0.072340972136987 0.0137755707936388 0.1010017073289017 0.0055963582525827 0.1496866075131609 )
( 0.1540432205374454 0.0811224481658616 0.0194894077633404 0.1142328714600211 0.0089577512523014 0.1644528228983367 )
( 0.1611041939444239 0.0896738405199544 0.0263175578795086 0.1266708907415861 0.0127131930240728 0.1793092011196822 )
( 0.1685849662679767 0.0966174372190005 0.0330056011143138 0.1375509039714336 0.0166833760569975 0.1937010101432425 )
( 0.1760569145188358 0.1015030555565227 0.0389940259217137 0.1456239705464179 0.0201597573603696 0.2049869803707028 )
( 0.1836117308610967 0.1048993699046147 0.0445024079356062 0.1514675675495679 0.0231165322382218 0.2126027984434868 )
( 0.1913844440299672 0.1067196305878437 0.0494703558722099 0.1550120634214584 0.0254054072198611 0.2164008830062555 )
( 0.1989445463019719 0.1066418440038389 0.0534370612620978 0.1558339661120706 0.0269639488172017 0.2164590338705715 )
( 0.2058102330127254 0.1053040098384736 0.0564008113702448 0.1545349605934671 0.0278743788977474 0.212439009613363 )
( 0.2115214245743062 0.1034980757778055 0.0589491477036445 0.1523220876628195 0.02818837697282 0.2059924608185631 )
( 0.2161692460417232 0.1013730281340404 0.0607646487807623 0.1496496814647495 0.0281627805146464 0.1988310309219319 )
( 0.2200855840248657 0.0993718906641874 0.0616431317264435 0.1464798664694161 0.0277450092906617 0.1908257822604038 )
( 0.2226624359628352 0.0971795650584341 0.061635461414505 0.1430628780732553 0.0270627173744882 0.1817663670729296 )
( 0.2251705063865439 0.095043569894645 0.0611219508845264 0.1395470718763817 0.02616084670458 0.1719670186906128 )
( 0.2276198644075186 0.0929585273420071 0.0601175378210632 0.1352499975103639 0.0248765105829394 0.1608944526111072 )
( 0.1283692585258744 0.0376407934288927 0.0011090196350696 0.0557500706859087 -0.0084776826075922 0.1188627577704739 )
( 0.1299003169068839 0.0449557931120673 0.0005006066836832 0.0633107732177776 -0.0039062009568918 0.1219078941602231 )
( 0.133700388027589 0.0572566999034494 0.0051545254478868 0.0787979005081785 0.0024828090346345 0.132755361352045 )
( 0.1402003015172054 0.0697917154728848 0.0130731745806503 0.0971420221385424 0.0079526349443584 0.1514385426570596 )
( 0.1467283375730294 0.0792869418510187 0.0212589120606166 0.1118365064793184 0.0125041689491991 0.1685491693498466 )
( 0.1542212188334382 0.0880888580297832 0.0301558272131404 0.125728705186063 0.0169635155836445 0.1858570825922159 )
( 0.1627578904934566 0.0957323611098474 0.0391512166715543 0.1378842636283311 0.0216073439935309 0.2020743839075507 )
( 0.1712463689525952 0.101174961205699 0.0470958327689255 0.1476144245722504 0.0257790838410212 0.2159510317915564 )
( 0.1800118227652699 0.1047470261438532 0.0536585409169227 0.1544922307239128 0.0293805825262774 0.2254000738388613 )
( 0.1889480135256486 0.1069694704046439 0.0586981452896108 0.1591273688963067 0.0316585482214229 0.2291266748032712 )
( 0.1975547634805989 0.1076699176968326 0.0621133662628924 0.1614058677103415 0.0324146994453361 0.2276206521817558 )
( 0.2053490101688003 0.1069318351210531 0.0634309796699566 0.1613085683031929 0.0325260217831087 0.2211201288635306 )
( 0.2119685960624438 0.1052108482171136 0.0633987530830892 0.1592974354676406 0.0316844657641863 0.2114333351632181 )
( 0.2171535848780725 0.1032190181780384 0.0628777825308967 0.1567092235220178 0.0302213880886593 0.1998156132892196 )
( 0.2210585329422997 0.1016269374297508 0.0614328183159105 0.1542446573008714 0.0287235819803691 0.1883085606894663 )
( 0.2241294619394901 0.1003569010582786 0.0593126061009749 0.1515244297064156 0.0271744099813698 0.1773255660302173 )
( 0.2264182293426228 0.0991989178860235 0.0566922161462832 0.1488724020810322 0.0255600185211217 0.1657960885574655 )
( 0.2283823057595487 0.0982782880398268 0.0537127344258095 0.1461277650748589 0.0237273784708283 0.1538595962129899 )
( 0.230502424951097 0.0975525485997 0.0501896300343187 0.1425950829164941 0.021591636187799 0.1412988836927128 )
( 0.1255519071865528 0.0413774837194718 -0.002836047856025 0.0616558460883899 -0.0055169079895542 0.1267821253528078 )
( 0.1261436918078392 0.0505076364790322 -0.0006848870044449 0.070893699731933 0.0007475371213337 0.1316145204278504 )
( 0.1308611745720895 0.0642315651288495 0.0086546573100091 0.0883130348884496 0.0087381977917435 0.1464021795481351 )
( 0.1389905371250857 0.0771491897134599 0.0209911130582336 0.1075518345757902 0.0155608084912682 0.1682778318107041 )
( 0.1474137694449293 0.0868540137133535 0.0324800523143726 0.1228803503552976 0.0212308603290975 0.1875863907015661 )
( 0.1567070237231319 0.0952620507585908 0.0436797163503136 0.1366475300816186 0.0265026704749645 0.2064105283843063 )
( 0.1661506223630058 0.1015587066262687 0.0529561328052661 0.1482447432406915 0.0309229218254363 0.2225807318679361 )
( 0.1751688193137169 0.105761802764667 0.0597607060551185 0.1568620507081025 0.0342703363783644 0.2341834702422351 )
( 0.1843596890942497 0.1087385140001899 0.0645928973988148 0.1629811792578862 0.036972686679338 0.2403864232111629 )
( 0.1928226906031332 0.1099963913067409 0.0665290066619089 0.1668760173282058 0.037531718947375 0.2392795891868143 )
( 0.1997886574317048 0.109913180138157 0.0660162124937331 0.1684804932649198 0.0357572908807814 0.2317070065171521 )
( 0.2060157786276491 0.1092530791818744 0.0637292840845705 0.1684632399845926 0.0336338024588034 0.2192388694179264 )
( 0.2111993535011654 0.1080472453126587 0.0605775053146756 0.1671525758244234 0.0308162608361989 0.2043737189514248 )
( 0.215279277297307 0.106946874099836 0.0572020032698606 0.1653394703596763 0.0280035875580998 0.1887745524443915 )
( 0.2182041077654301 0.1062459039269971 0.0530792076560003 0.1637218685774223 0.0253574481211061 0.1736677898145583 )
( 0.2204501309393527 0.1062431915889351 0.0488514467060492 0.162288826648882 0.0227730822846872 0.1605874553987439 )
( 0.2228896328491031 0.1067708781079794 0.0446449685293247 0.1606422278186506 0.0203580658256382 0.148068300793575 )
( 0.2255245343448216 0.1077155212463712 0.0400513980565451 0.1586550746965217 0.0178175365073063 0.1354336422552475 )
( 0.2287675281409544 0.1090413594593415 0.0351805532271253 0.1559734059972685 0.0152375739239875 0.1232408448011794 )
( 0.1213875135145342 0.0467697650624443 -0.0048253918985347 0.0689745121740848 -0.0016458210334612 0.1345555728485095 )
( 0.1221534448935075 0.0571842007079386 0.0016498093553474 0.0795551649789328 0.0064105382708871 0.1410276969770495 )
( 0.1297555591129625 0.0717333161129696 0.0163783207268634 0.0980175664749941 0.0163040995850279 0.1598493337448435 )
( 0.1401744321847287 0.0846888272755479 0.0323553749810703 0.1176534314155077 0.0244155930756671 0.1847294999020041 )
( 0.1500446576373308 0.0943211936166535 0.0458081707603224 0.1333193059587447 0.0305525585813265 0.2060077556685948 )
( 0.1602598680138776 0.1019460953724362 0.0571650290501523 0.1467444645388844 0.0358389126358502 0.2249114951025205 )
( 0.1700456093260134 0.1071994449917531 0.0648540279796459 0.1575188882823168 0.03965145759797 0.2395263658781277 )
( 0.1778699170993276 0.1104768841520281 0.0684397944538542 0.1658745456214697 0.0412852995051349 0.2479425691875122 )
( 0.1847045292139623 0.1128795124314415 0.0693563843846534 0.1722957061558907 0.0410618505594338 0.2492635658556276 )
( 0.1906962495599188 0.1134585963770186 0.0673721760606226 0.1759103644808079 0.0392322790557159 0.2418301339494813 )
( 0.1954751834052886 0.112934534566569 0.0631109535625072 0.1775121005942657 0.035157445527884 0.2277339352267973 )
( 0.2003549478176391 0.1128098460943913 0.0580247396262551 0.1781361177950003 0.0307424665925023 0.2099606223106195 )
( 0.2047590058193416 0.112911595185264 0.0526186875279816 0.1782176563842839 0.0268316542133824 0.1910098770714393 )
( 0.2079470274588011 0.1134413950957331 0.0470867604628933 0.1780916531778099 0.0232072275845128 0.1730951928818916 )
( 0.2106475280131933 0.1145050916692536 0.0417146473976354 0.1776719998866763 0.0200393437737629 0.1571680101579065 )
( 0.213472857935176 0.1165406167955559 0.0365341216883387 0.1776082964814485 0.0168916520881622 0.1433937015054864 )
( 0.216943448590645 0.1191925679005265 0.0314044028732267 0.1771259484050592 0.0139900778241913 0.1308759781097272 )
( 0.221291451111506 0.1223442859535051 0.0261643187052334 0.1759113801395074 0.0110848285828406 0.1191189071647611 )
( 0.2266544475408385 0.1259564764462656 0.020964838247949 0.1738695546995102 0.0082733792469065 0.1087354154019878 )
( 0.1166577957063633 0.0529999723491528 -0.0034814509123517 0.0770236380742282 0.0033007441883506 0.1416871248832554 )
( 0.1191971920951152 0.0642692053973732 0.0080063587955055 0.0884833760308268 0.013405613135494 0.150659681500944 )
( 0.1302715709151595 0.0791135576669122 0.0272607881022617 0.1076311127172518 0.0247516640636107 0.1731015922257998 )
( 0.1421998526654001 0.0916197959521908 0.045071650239382 0.1274204814332151 0.0333763563709968 0.1997783741593894 )
( 0.1526008427096993 0.1008735669739636 0.0588943702994343 0.1433305234630826 0.0395696878065166 0.2223086388329932 )
( 0.1621334256445228 0.1078130875581608 0.0680898440370469 0.1566818154705257 0.044086050064902 0.2403650184358477 )
( 0.1695810769765877 0.1119474256196918 0.0720211446643969 0.1670256212027298 0.0458679603031169 0.251369369063423 )
( 0.1752679594290099 0.11448530767827 0.071940984190886 0.17542131054037 0.0449485466750857 0.2549389285429584 )
( 0.1795882983961915 0.1162216464311001 0.0686965760517301 0.1822970052026763 0.0417789724128138 0.250283154568757 )
( 0.1828900742600894 0.1167413987161317 0.0632703645201773 0.1867994119994781 0.0374875844485955 0.2371303597053384 )
( 0.1864151449541215 0.1166729805570527 0.0564784901521365 0.1891007848363045 0.0319668180519254 0.217550465180509 )
( 0.190981242221988 0.1177009596792852 0.0495053918577015 0.1907185897273323 0.0261660539608503 0.1958947945744545 )
( 0.195554059531036 0.1199980922303281 0.042885833765609 0.1926784040828 0.0216269728050802 0.1745409728111278 )
( 0.199161076907705 0.1225888336826412 0.0362339428948665 0.1941875413880973 0.0174929940925562 0.1559901542758179 )
( 0.202855579890707 0.1257246575677125 0.030485561999992 0.1948841837763797 0.0140143299627929 0.1410881095365134 )
( 0.2070328056362067 0.1299355334080817 0.0251517582785944 0.1959904174107229 0.0107365587850251 0.1278631671272868 )
( 0.211856832159174 0.1347723654549756 0.0197037222564389 0.1968153409325936 0.0076437066260137 0.1165418878200913 )
( 0.2181822374017329 0.1402563427021749 0.0144153860379454 0.1965935185666559 0.0046466406818141 0.1069397229009012 )
( 0.226009213051219 0.1462745408448866 0.0091847902459886 0.1951534439102907 0.0016748137396187 0.0992106174302622 )
( 0.1133553010510106 0.0597637483927202 0.0017721414591578 0.085773951336696 0.0096922220110536 0.1490075520664562 )
( 0.1194822810406233 0.0719721387923003 0.0187004933012071 0.0982317968260023 0.0215770302697308 0.1608836470284924 )
( 0.1322568912004603 0.0863538215067386 0.0404894807412312 0.117844899947124 0.0333969763607884 0.1860229007141247 )
( 0.1441554519872132 0.0979347679689486 0.0579257487705383 0.1372091283000456 0.0418047844627621 0.2130357479509212 )
( 0.154141965214084 0.1064996568214005 0.0696000977847458 0.1531740705051169 0.0473489694781369 0.2355287875224063 )
( 0.1612443579882776 0.1121174838823962 0.0751680423141536 0.1663127137531375 0.049759894725865 0.2508812470208715 )
( 0.1649606453085088 0.115155705436656 0.0751969581477322 0.1770044575148655 0.0487970630062838 0.2570871343827432 )
( 0.1675633950806505 0.1170975331689079 0.071323572805693 0.1861470020624205 0.0451772157420043 0.2547940787425721 )
( 0.1695105597461975 0.1181673913800128 0.0647995088868842 0.1932521344238339 0.0397607373117966 0.2441511272281262 )
( 0.1715479149711069 0.1193704874142943 0.0569352577243725 0.1988058060454908 0.0337287286146217 0.2263493171034261 )
( 0.1755261198974128 0.1210708831169942 0.0485584262343727 0.2026039458053246 0.0274750253424035 0.2037362662281153 )
( 0.1807534603535607 0.1238731656230074 0.0404815670170816 0.2058379300216744 0.0212541831500902 0.1803520621780337 )
( 0.1858918169759073 0.1281615793200033 0.0332424069992392 0.2093341343787008 0.0163110664604529 0.1590248487853462 )
( 0.1909251458311876 0.1329338549412542 0.0265450412053574 0.21211562730962 0.0121098555904322 0.1413203089409551 )
( 0.1961824242391073 0.1385720632628773 0.0208800716124654 0.2147292626580581 0.0084286339132241 0.1273143269366323 )
( 0.2019587064541551 0.145268468442246 0.0154835620869427 0.2175309958738469 0.004977116745385 0.1156809256997406 )
( 0.2089237906455386 0.1526290039833493 0.0099823151073005 0.2197708089959161 0.0017009163125749 0.1064596978071869 )
( 0.2178748474953865 0.1606862738881401 0.0049638223179049 0.2207317379360992 -0.0013794579920626 0.0993085098539646 )
( 0.2291389911061604 0.1694561485710809 2.8518619313373595e-05 0.2200063782875441 -0.0044145217678673 0.0942139977374326 )
( 0.1133455198432345 0.0666465579709061 0.0108343659224131 0.0944825571657143 0.0167706595400477 0.1562664565371113 )
( 0.1218048174411433 0.0786661455452099 0.0314325086805998 0.1072585494935114 0.0296158862885824 0.1699296510746382 )
( 0.1347114910721804 0.0926610971910558 0.0539484445982681 0.1276756583628444 0.0418276070434366 0.1974228663064428 )
( 0.1451652761070757 0.1032132960716765 0.0689106530303589 0.1467222164806494 0.0491814266955509 0.2239307008074128 )
( 0.1525284107940119 0.1102798914372859 0.0767110238821932 0.1624678971505789 0.0528791447645081 0.2439648877379381 )
( 0.1561312351423668 0.1144038119219826 0.0782505410730756 0.1756180462729832 0.052851041557811 0.2557858735341224 )
( 0.1570603095482561 0.1167600806322688 0.0749291931935612 0.1869976472679627 0.0494300074487958 0.2577742035812299 )
( 0.1572039817670767 0.1182313345480591 0.0678630912646722 0.1970499672781827 0.0434742019475554 0.2504153481937808 )
( 0.1576083393640615 0.1193999473480537 0.058932710728747 0.2048766177962782 0.0365356292797138 0.234733465206479 )
( 0.1595868586803398 0.1218091170507705 0.0496512297449288 0.211783654110518 0.0296047842246637 0.2135081216983398 )
( 0.1641900725184422 0.1256840851188991 0.0405096714097501 0.2176822676863905 0.0226526429493106 0.1891035024889574 )
( 0.170724037167563 0.130911217232789 0.0320590879684041 0.2229834482235381 0.0163233384126786 0.164917038833949 )
( 0.1773341035245769 0.1372909017009101 0.0248389222862908 0.2278199315604893 0.011302723681324 0.1450827734718026 )
( 0.1842018666563488 0.1443751365101948 0.0184573476169749 0.2319916968798724 0.007129369539971 0.1290995427890853 )
( 0.191378964484808 0.1526691549951634 0.0127609712955369 0.2369094239493786 0.003336192667594 0.1164189593162785 )
( 0.1994892082535638 0.1622401637396953 0.0074639926511871 0.2419080494857385 -0.0002683772151847 0.1068529062868574 )
( 0.209438757362305 0.1726474286599721 0.0024737557093383 0.2459685858346517 -0.0035720416832202 0.0998541939179696 )
( 0.2214566475868798 0.1835003644264444 -0.0021286054597342 0.2483317019162756 -0.0066131290168609 0.0949255277097635 )
( 0.2365745184524295 0.1955538314313923 -0.0068132377716897 0.248966297286374 -0.0095216655474263 0.0922731749196103 )
( 0.1153804213113504 0.0730359811784579 0.022622813310294 0.1033328478114758 0.0239563713539419 0.1630610214691959 )
( 0.1246704654329764 0.0846811308305073 0.0452661381523001 0.116541269163816 0.037517197656456 0.1782123509207815 )
( 0.1368429615720209 0.0979866410723089 0.0664470973606464 0.1371629013955354 0.0495039749133947 0.207528741563795 )
( 0.1444592639300662 0.1069402662444229 0.077541635733753 0.1557095275127885 0.0553018151007409 0.2322447120597599 )
( 0.1478879757599009 0.1122659496565533 0.0811245264376355 0.1716231961416439 0.0564066929813476 0.248387479965583 )
( 0.148143033577272 0.1153889109501446 0.0786050372280425 0.185699514515177 0.05397627959313 0.2559365656353543 )
( 0.1471960068620851 0.1170370143010001 0.0717968689200554 0.1973431218654383 0.0481984211298412 0.2536558184015094 )
( 0.1459899038665946 0.1183915424576226 0.0623042571546839 0.2080637410412101 0.0405800170651153 0.2418811332543153 )
( 0.1459620796619942 0.1204916237456484 0.0522056615299234 0.2172559892542904 0.0330670318671877 0.222231239414633 )
( 0.1484999597524276 0.12453851981363 0.0422481030404066 0.2259844877502456 0.0255045206219238 0.1989175609438479 )
( 0.1537484549574898 0.1304585645398881 0.0328807085838469 0.2340854238900873 0.0181782243685802 0.1744810923653926 )
( 0.1615298423369247 0.138237478712055 0.0246594248775243 0.2415677013625304 0.0118790802489293 0.1515975827464194 )
( 0.1701708203684044 0.1472663109095787 0.0176032731856433 0.2484006812998249 0.0067444812314765 0.1331292920006704 )
( 0.1797088885980965 0.1571570356103692 0.0115053993922819 0.2544107080436484 0.0024623122529728 0.118690098365675 )
( 0.1895361048534315 0.1684061482895217 0.0059824164490153 0.2616601668377858 -0.0014202830511365 0.1081342075270045 )
( 0.1998905190424942 0.1805357126407432 0.0011466708893603 0.2690179151765151 -0.0049386773888999 0.100875108183107 )
( 0.2125326147225153 0.1937544958753287 -0.0031619821071093 0.2751496839618204 -0.0079982927547015 0.095837326927028 )
( 0.2285706191723765 0.2082424186752857 -0.0075088165729526 0.2793771353619853 -0.0109462604916638 0.0928812293623476 )
( 0.2483548991533272 0.2240361649200097 -0.012207583684618 0.2813561020207024 -0.0140107647052776 0.0924944252835199 )
( 0.1180833352799356 0.0789370315471358 0.0360856434743028 0.1128319963787984 0.031584144253755 0.1694825994665216 )
( 0.1273211216870958 0.0902623752322873 0.0585295613077312 0.1266664861485829 0.0452317723372744 0.1858245777606808 )
( 0.1371948710772355 0.1020896047987389 0.0761982508640944 0.1466477826199034 0.0556950024915794 0.2149371168184431 )
( 0.1416438925694769 0.1091704428890976 0.0834654934517342 0.1644991364490431 0.0595379845881021 0.2375309824907384 )
( 0.1419492489680579 0.1129073364588969 0.0827961223977657 0.1805690440858257 0.0580305832466172 0.250076789832127 )
( 0.1393093287213092 0.1149081422680169 0.0765449208615203 0.1951989048994529 0.0531381394989182 0.2523253607783554 )
( 0.136473877804567 0.1161421626212904 0.0671998448282639 0.2074758316251338 0.0459833637871015 0.2455458336688009 )
( 0.1342809683032959 0.1182045258830534 0.0560920132675851 0.2195268841834114 0.0374065385285593 0.2306875476108512 )
( 0.1343786542046376 0.1217478496915426 0.0454440473504739 0.2310148827221109 0.029145056808122 0.2098314721261151 )
( 0.1382108919920041 0.1273241584664066 0.0355175219889708 0.241097650145208 0.0215206701186508 0.1857108138344087 )
( 0.1454647308576369 0.1356700052546127 0.0262638979137097 0.2511498282938635 0.0141000022528513 0.1614501055162549 )
( 0.1549632556438319 0.1460554767935649 0.018311484193835 0.2609298913144256 0.0077692933078595 0.1405076615558129 )
( 0.165454960078046 0.1578316274837285 0.0115509331907277 0.2703000948041248 0.0027513488357897 0.1236354756869465 )
( 0.1772263095170408 0.1708969941924515 0.0057807597112513 0.2796040263618041 -0.0015930512186681 0.1109058313559005 )
( 0.1891190110749728 0.184830889672776 0.0008104398224336 0.289632385933879 -0.0053467003132913 0.1025979489328181 )
( 0.202020025361188 0.1996499669163428 -0.003567545177332 0.2992306733062591 -0.0087327262194756 0.0973430134263956 )
( 0.217984484452767 0.2163902019308457 -0.0077327671747181 0.3081335766547291 -0.0118712521034656 0.0940519485282189 )
( 0.2382718411293419 0.2350488691247461 -0.0119739955025581 0.314983916744283 -0.0149699705506095 0.092975135450655 )
( 0.2630608350219608 0.2541919956434339 -0.0166914203465821 0.3167562095809285 -0.0183708407463663 0.0943131148094658 )