/*--------------------------------*- C++ -*----------------------------------*\
| =========                 |                                                 |
| \\      /  F ield         | OpenFOAM: The Open Source CFD Toolbox           |
|  \\    /   O peration     | Version:  2112                                  |
|   \\  /    A nd           | Website:  www.openfoam.com                      |
|    \\/     M anipulation  |                                                 |
\*---------------------------------------------------------------------------*/
FoamFile
{
    version     2.0;
    format      ascii;
    arch        "LSB;label=32;scalar=64";
    class       volVectorField;
    location    "0.0043";
    object      U_LES;
}
// * * * * * * * * * * * * * * * * * * * * * * * * * * * * * * * * * * * * * // 
 
dimensions      [0 1 -1 0 0 0 0];
 
internalField   nonuniform List<vector> 
13597
(
( 17.17669030139722 1.696859245750666 0.0173037227334762 )
( 17.177079862683872 1.7407275668461497 0.019846705259493 )
( 17.18723243369227 1.8286387168672529 0.0261997208756641 )
( 17.20514158426729 1.9401587442705093 0.0350157514108353 )
( 17.220866740398208 2.032998913681158 0.0431218183921365 )
( 17.22982494021788 2.107200719120561 0.0494231464305741 )
( 17.241070405588562 2.1794694576963 0.0557207483255771 )
( 17.254952226567642 2.2561873398933407 0.0624852380082909 )
( 17.27066956791305 2.332654211097249 0.0683239281280852 )
( 17.28722172975394 2.4090168398363483 0.0734737347721915 )
( 17.30371117434287 2.4939463480408315 0.0779861592364414 )
( 17.324450534573494 2.578664948104015 0.0804905822968687 )
( 17.34809944604936 2.661639620385403 0.0817712790358176 )
( 17.371586805085666 2.750612600296856 0.082065156046755 )
( 17.39496194245908 2.8431504082604597 0.0807035979601 )
( 17.421902662322633 2.934878081426791 0.0786006807193628 )
( 17.452881033491284 3.0234326090190624 0.0759230297008554 )
( 17.48488708147271 3.112261302427963 0.0720909050664291 )
( 17.51827416230914 3.2048910655566023 0.0668794434241275 )
( 17.070627703520454 1.7336032918956916 0.0061099579201588 )
( 17.05488604136319 1.7888603216239063 0.0085896179772918 )
( 17.04094663246416 1.9003181133881797 0.0163825031507576 )
( 17.026253073838518 2.024109569010624 0.025755847751899 )
( 17.00963401200612 2.11649222568437 0.0338006661981561 )
( 16.990429623146248 2.200616103852758 0.0412816149838109 )
( 16.973597962025845 2.284309081191816 0.0481109257948178 )
( 16.956569551931647 2.371387607011169 0.0542699803553376 )
( 16.942539446920534 2.4604501887544576 0.059041569741254 )
( 16.928299953612708 2.5493992933649383 0.0625576859900247 )
( 16.91216674552632 2.648767692020019 0.0647905303520558 )
( 16.89560491991207 2.755758164413559 0.0642207949603765 )
( 16.878542358866753 2.8644364437389878 0.06190444738645 )
( 16.865255630156312 2.9777708379318018 0.0580043698589558 )
( 16.856027387243483 3.0909071373741748 0.0523208853973771 )
( 16.85152362280374 3.199224514851108 0.0465611906816895 )
( 16.849938449852118 3.299761508292532 0.0408932724609596 )
( 16.848657137881244 3.4034436999448343 0.0343776117427323 )
( 16.85366876887828 3.507399498262981 0.0276201716898267 )
( 16.960124432196025 1.759688200552405 -0.004007689977947 )
( 16.921508787794085 1.821090851954651 -0.0018375533659011 )
( 16.875109733313256 1.943554100106453 0.0069006009332358 )
( 16.822470426598677 2.070619228077511 0.0170499210521343 )
( 16.770944794089303 2.1609624150482243 0.0247241440928804 )
( 16.72335730120518 2.250130382406504 0.0319406215309724 )
( 16.67775809674058 2.342376261401721 0.037685052696511 )
( 16.62767036063244 2.436050430572354 0.0409450254048248 )
( 16.580883824851426 2.536126819202542 0.0421926867641372 )
( 16.535712197948847 2.6459669418932785 0.0416354969391411 )
( 16.489475830524015 2.7635961904686965 0.0387001924929666 )
( 16.44442614238268 2.8934051378310857 0.0331351805345207 )
( 16.402146557917334 3.030171563303388 0.025973980950693 )
( 16.365978853517095 3.16317930971999 0.0179344850781594 )
( 16.336886593617095 3.286744244411362 0.0094905780642467 )
( 16.313996827314796 3.3985358977008677 0.0016982585041416 )
( 16.291709442150974 3.500103942777692 -0.0055481722713966 )
( 16.270169531887476 3.602786608934185 -0.0129507710281356 )
( 16.258106361396774 3.7104929852086 -0.0196119854450379 )
( 16.836823778811205 1.7706547924075782 -0.0135331683251732 )
( 16.77111143970793 1.8340858380634188 -0.0114648810552423 )
( 16.692216402395125 1.9565431419927009 -0.0015514513169886 )
( 16.603349312418175 2.08169765191072 0.0093630917634297 )
( 16.51683533297024 2.173157899704725 0.0157569666719088 )
( 16.43775449205456 2.2640349803301607 0.0203835186491686 )
( 16.35778624546806 2.363177910431137 0.0223673414445674 )
( 16.276182886413917 2.466996920609189 0.0212897068392887 )
( 16.203442760290923 2.579839898256917 0.0179870687361219 )
( 16.13470752408355 2.7058756322053257 0.0124078088311807 )
( 16.064556236746384 2.843610357318932 0.0042881376590438 )
( 16.00318180231947 2.9916148973817185 -0.0050762339427509 )
( 15.94881758206902 3.142807212079977 -0.0147696348257731 )
( 15.89646639366349 3.28922174432727 -0.0244803791632028 )
( 15.848704594849869 3.4168023710569257 -0.0332127826905633 )
( 15.806144370124931 3.527540006228077 -0.0403529522138625 )
( 15.76623427165424 3.629009908630343 -0.0463606906933236 )
( 15.7243291401571 3.7318974624267054 -0.0518653245335053 )
( 15.686609075952116 3.846917353629368 -0.0568484280953588 )
( 16.70501767279697 1.7661029919029287 -0.0211654486298084 )
( 16.614819410234045 1.8311759155211764 -0.0173578400730051 )
( 16.50223015126413 1.9526765514721356 -0.0072040201107034 )
( 16.378092735804117 2.0719904186039746 0.0017824605406509 )
( 16.263560804611036 2.1632457078641423 0.0054220324254888 )
( 16.156814088894077 2.257415607903868 0.0060556744815849 )
( 16.04751272134031 2.363149606315176 0.0030262840945181 )
( 15.942562793128452 2.4766245610733364 -0.002427041311908 )
( 15.84881204383148 2.598566333363748 -0.009762330855588 )
( 15.757833452995238 2.735334305948869 -0.0193623390286756 )
( 15.666521357294773 2.8902686741395405 -0.0303853727710101 )
( 15.583029020075324 3.053125050176852 -0.0410365067865474 )
( 15.505384933511232 3.213621835272307 -0.0506121008007593 )
( 15.428789208743613 3.36499793297242 -0.0593179508812884 )
( 15.35485768484208 3.4904702391425544 -0.0663042357375385 )
( 15.284352392365298 3.6036795201103486 -0.0711656316546373 )
( 15.218468944479406 3.7122001276387535 -0.0742585333075602 )
( 15.153347483476596 3.8211882669809274 -0.0760390908777886 )
( 15.088514278671788 3.9441994724016674 -0.0768713444740315 )
( 16.56964733916485 1.7461110316430006 -0.0270046420887414 )
( 16.454063355135588 1.811799251082988 -0.0219151081239844 )
( 16.306026112692585 1.9340556634605528 -0.012353420277836 )
( 16.154558417822788 2.049025419284558 -0.006588960039894 )
( 16.019795340535207 2.1406019035483688 -0.0069309837193425 )
( 15.89302724685329 2.239262079297768 -0.0106917810637944 )
( 15.767134320333431 2.3487097649522943 -0.0175606252672582 )
( 15.64277894044016 2.468014668487453 -0.0267728850972577 )
( 15.520672900890112 2.597885735898745 -0.0374704498888861 )
( 15.40154396460186 2.748640347699034 -0.0492211515769833 )
( 15.288981921961456 2.913078471555065 -0.0604684211005675 )
( 15.177702479062496 3.081258541869297 -0.0698279176558746 )
( 15.072839362912028 3.2478114913415985 -0.0768097068941064 )
( 14.97327966339906 3.39971879339335 -0.0814945746074986 )
( 14.87411142418896 3.526505616659516 -0.0842950445870472 )
( 14.78295698392066 3.6387591527013496 -0.0850647527532224 )
( 14.69454983804854 3.7473086534256095 -0.0841963576455289 )
( 14.606300742568925 3.85770397682855 -0.081979736361429 )
( 14.518799008123857 3.9836651896925503 -0.0782087062945624 )
( 16.424519865324832 1.7136258919451872 -0.0309278297717768 )
( 16.285090443366244 1.7802640516563255 -0.0259337763396206 )
( 16.111805901911097 1.902099128112499 -0.0188106714229664 )
( 15.94115480757909 2.0128364095587865 -0.0172201276855691 )
( 15.789807547024582 2.104576636840429 -0.0216459695179466 )
( 15.643140162215806 2.204523653266805 -0.0295713224429588 )
( 15.499366038145425 2.319011986398161 -0.039424147272087 )
( 15.356505278849102 2.4449873742486865 -0.0513595723764921 )
( 15.209910424966614 2.579645071999935 -0.0636631236069784 )
( 15.071565894288698 2.737065270286387 -0.0738334668849263 )
( 14.935729089548184 2.9078879857522444 -0.0821810633025368 )
( 14.796406170567307 3.0816082161231284 -0.088203983701834 )
( 14.667356626530024 3.246923114389624 -0.0907960325644084 )
( 14.54500065371288 3.3948158630116643 -0.0908387827198102 )
( 14.42393318016808 3.5246391010916267 -0.0888730351001493 )
( 14.311211886066184 3.633531478462098 -0.0852836343051409 )
( 14.202710826550067 3.738716224718266 -0.0804302187895985 )
( 14.09249899228174 3.8528897400521 -0.0742014713209195 )
( 13.983281699644314 3.9815239151621937 -0.0666170931280622 )
( 16.282961788418802 1.6729685414240734 -0.0342611248872177 )
( 16.12210346428014 1.7367914240261089 -0.0302076224194516 )
( 15.929196768622695 1.8563023718178773 -0.0272402362029925 )
( 15.74369347969966 1.964369085016412 -0.0305834057121342 )
( 15.575568960632683 2.057121669221901 -0.038673285872137 )
( 15.410599106642527 2.161426998602644 -0.0495710620456509 )
( 15.246901207210248 2.2811177668277653 -0.0615556224945233 )
( 15.087302594506614 2.407591061042962 -0.0737943725325326 )
( 14.920449697481615 2.544001123100621 -0.0848667346210132 )
( 14.760680823868432 2.7078284855943444 -0.0916564365879406 )
( 14.599541843655668 2.8831007477631045 -0.0951843070864287 )
( 14.438323902063749 3.06025741633785 -0.09626406494642 )
( 14.286588084169477 3.224728667389958 -0.0942692163163203 )
( 14.138772462801445 3.3646401841687497 -0.0903642615044461 )
( 14.002205816933746 3.486236966841052 -0.084729450696764 )
( 13.86957205838852 3.593902931655334 -0.0777764221996944 )
( 13.739985576196194 3.701743104472949 -0.0695982398368856 )
( 13.610451007729392 3.82111521773061 -0.0600092433483963 )
( 13.48185831495914 3.954153782173917 -0.0495012194355694 )
( 16.147043944159744 1.620583608868918 -0.0382130860936549 )
( 15.96750891905994 1.6789850666117705 -0.0370439527195729 )
( 15.7580017596783 1.7974710893112935 -0.0383454938486009 )
( 15.561576154259132 1.90471827870144 -0.0451850682342925 )
( 15.375917463276217 2.001077535713797 -0.0565363566224647 )
( 15.19765327446892 2.106377334952092 -0.0692597469269326 )
( 15.019996467533357 2.2248092235548733 -0.0810825837913178 )
( 14.843257541573282 2.357129044571097 -0.0909986154016783 )
( 14.660426438732262 2.49976531907978 -0.0983758587215511 )
( 14.471084616299237 2.662184501738603 -0.1023400992808089 )
( 14.285533433653727 2.839207906790578 -0.1013215628750774 )
( 14.10709026054246 3.01483607303788 -0.0969045772201456 )
( 13.929527227419502 3.1766964679822918 -0.0910425409554953 )
( 13.76055761407963 3.313932553755297 -0.0835980539173667 )
( 13.609016837517862 3.429713147976522 -0.0753183332470654 )
( 13.45721799593016 3.538380560753687 -0.0660726808061992 )
( 13.306683815321673 3.6470414731935863 -0.055390535721288 )
( 13.156427646078717 3.767681108678785 -0.0432911487504217 )
( 13.004717344633614 3.905105879390649 -0.0300000958118824 )
( 16.011910677170313 1.5635758469741374 -0.0428816032478176 )
( 15.818030492048344 1.6232104576439124 -0.0453225852993127 )
( 15.59731077963159 1.7400901503313602 -0.0504940904796712 )
( 15.391096161409038 1.8419334535217653 -0.0603048803771377 )
( 15.193778795256817 1.941175893210475 -0.0733433245139459 )
( 15.003787875136334 2.0429890755816307 -0.0861198002000949 )
( 14.809650898758395 2.1553233000746688 -0.0968268346149202 )
( 14.610143295107369 2.2885439931903164 -0.103906662515913 )
( 14.412413483031296 2.432660085907873 -0.1065752372457252 )
( 14.204658958018626 2.595267713123964 -0.1061705062282276 )
( 13.997651982816546 2.776916115659195 -0.101734351628739 )
( 13.79891754754498 2.954282045778667 -0.0938840519416996 )
( 13.602644931142189 3.11020005048343 -0.0845824798064216 )
( 13.4183981261789 3.245707308292005 -0.0742244009688188 )
( 13.244967592619052 3.360036044070189 -0.0635889370847881 )
( 13.07071011698206 3.4654845740877107 -0.0519765605397034 )
( 12.895114254244843 3.572561143929073 -0.039057551114891 )
( 12.721024331191554 3.693232220905373 -0.0257887081311812 )
( 12.546600174494976 3.836270569157136 -0.0122380602324428 )
( 15.888154720464971 1.506328318155714 -0.0490227896795172 )
( 15.686708121063074 1.5694570616435684 -0.0541700472530418 )
( 15.450345663281212 1.681514782236713 -0.0629066588566477 )
( 15.237547186907776 1.7756789135967035 -0.0751994329524728 )
( 15.031824251662004 1.8714828129957204 -0.0881710668171456 )
( 14.825488228142298 1.971694475375376 -0.0996693291957291 )
( 14.615479090487275 2.078587413343417 -0.1086372280574017 )
( 14.401832756466954 2.2049848034442388 -0.1123848142245072 )
( 14.185363758810642 2.3529304692616946 -0.1110008161027144 )
( 13.962908173703276 2.5182417453416988 -0.1065012690825405 )
( 13.736450967603062 2.698025936711539 -0.098665890920769 )
( 13.51115669365603 2.878947098850321 -0.0877854185457714 )
( 13.300942860840866 3.031151278610531 -0.0757504157370078 )
( 13.1005056922589 3.164123921841969 -0.0632737429146051 )
( 12.900225505611235 3.2776822225579947 -0.0504357011510526 )
( 12.699231797861511 3.3789642038808383 -0.0375865113607422 )
( 12.499121552306956 3.4858420192126025 -0.0248825708595876 )
( 12.304967206006548 3.609419045407372 -0.0125719419951888 )
( 12.107544346626744 3.759259074382496 9.403461026207576e-05 )
( 15.773300691681984 1.4445355406081848 -0.0568948351565181 )
( 15.56253555749784 1.5087916521262985 -0.0645778007936462 )
( 15.313860280344423 1.6185298347477748 -0.0760098076558072 )
( 15.09581345560298 1.7050387887348233 -0.0891920116569836 )
( 14.88043843010444 1.792418541131557 -0.1012057251881506 )
( 14.659627505539296 1.8908361053189444 -0.1110828244573132 )
( 14.440238553122445 2.002625125303743 -0.1161326414697074 )
( 14.212897362194193 2.1292421449112093 -0.1158851601401595 )
( 13.978402591063604 2.277072626029301 -0.1116955629829068 )
( 13.73779784606166 2.439274854075038 -0.1043555041843075 )
( 13.493076672704431 2.6128753041930763 -0.0934255453072112 )
( 13.247019007290294 2.7869016795335555 -0.0797781211720772 )
( 13.013353112625769 2.940331987360965 -0.0659524519386319 )
( 12.788126837498176 3.077275401279677 -0.0520598118736901 )
( 12.5621213748367 3.1880201343719192 -0.038447083442327 )
( 12.341296956307126 3.283757684185041 -0.0262449503181765 )
( 12.124618419717196 3.390736520206485 -0.0148589351415122 )
( 11.909157831285926 3.523181020537548 -0.0028135896532312 )
( 11.687707996523748 3.682733571795676 0.0114739487071977 )
( 15.666375813307692 1.3739829686572451 -0.0667701846235533 )
( 15.447458225451172 1.4376934929925802 -0.0766155402568986 )
( 15.194841172190962 1.547613532307608 -0.0888005622766105 )
( 14.96642182772736 1.633377566400889 -0.101616267485533 )
( 14.742255841403166 1.7210677726842167 -0.1115718384442519 )
( 14.512279044127066 1.818251318637504 -0.1182867603420672 )
( 14.280967836797805 1.9289762126991 -0.1199081214298845 )
( 14.036606506567589 2.051008324140648 -0.1167152826251399 )
( 13.784275738430924 2.191583509881363 -0.1104742441606211 )
( 13.528239249726974 2.354666868091245 -0.1005485490766239 )
( 13.261667182631182 2.5312228258635314 -0.0868766837629302 )
( 12.996394945389698 2.6989371449006634 -0.0717400681311585 )
( 12.736564542860275 2.849075796544611 -0.0568247637252302 )
( 12.481594529950256 2.982131046600448 -0.0423984040292665 )
( 12.239361511231396 3.0845634343703265 -0.0298708976075092 )
( 12.006686211469344 3.180406756132715 -0.0181045034364003 )
( 11.770652908215371 3.2924316590402314 -0.0057260667137165 )
( 11.52880551389904 3.430715187393716 0.0080583858772466 )
( 11.275439255900665 3.605143499551594 0.0256375488223162 )
( 15.570645229379608 1.2963215078292107 -0.0777109470987867 )
( 15.350510670372042 1.3621971805127455 -0.0881253046099346 )
( 15.090171816846006 1.472141653370667 -0.0998022578998067 )
( 14.85179218559236 1.5579179802817935 -0.1111754851408647 )
( 14.617806372512964 1.6454011599557958 -0.1186115732818193 )
( 14.382030641538318 1.7380600514129056 -0.1218810933369672 )
( 14.138050810884376 1.84400923617073 -0.1213526423818758 )
( 13.883642376146067 1.963450609812528 -0.1167920178566761 )
( 13.613618510355993 2.0988973336638974 -0.1082543669398706 )
( 13.335567086108954 2.26017994425694 -0.0962220704651855 )
( 13.046432271171486 2.436989996428057 -0.081070172322041 )
( 12.754790419804166 2.607304086791514 -0.0645474553786484 )
( 12.472189669203082 2.757026034210417 -0.0488919096046576 )
( 12.20088287059334 2.878277750864685 -0.0351726417958934 )
( 11.942857718466444 2.974617418300448 -0.0229297452250688 )
( 11.68731574043368 3.0764869513097626 -0.0098297283406339 )
( 11.425986910523909 3.200017243054904 0.0044653582310403 )
( 11.152845662411591 3.3401948394950502 0.020732699458443 )
( 10.85844593415794 3.5208349573731126 0.0404559965415438 )
( 15.48674457613319 1.2209993242040742 -0.0881046796272266 )
( 15.260652935756902 1.2901274930859126 -0.098176737063249 )
( 14.983401167015344 1.3994097910122183 -0.1093710726865992 )
( 14.740579183067425 1.4778439263574346 -0.118607574020127 )
( 14.502402802448444 1.5606337469995517 -0.1236029903852735 )
( 14.26068767472513 1.6510376866602243 -0.1247805853367201 )
( 14.004595327670296 1.752162597670685 -0.1220664170905923 )
( 13.734509336115796 1.8708829054738556 -0.115601278413068 )
( 13.451520203983089 2.003342516578588 -0.1047720864264059 )
( 13.153887821179774 2.157440238355296 -0.0913962705842266 )
( 12.83920877566038 2.332954082621979 -0.0757572326435609 )
( 12.52093716768697 2.50123471548541 -0.0584844169854488 )
( 12.214802992932793 2.6505939891887422 -0.0423843676287196 )
( 11.93192380827572 2.766796423008685 -0.0287698097499937 )
( 11.659066690116695 2.8617516048670457 -0.0154267832334121 )
( 11.379436080462764 2.9671462163356086 -0.0007410183990253 )
( 11.084989422296346 3.09558107071133 0.0154176667057174 )
( 10.77191866662947 3.24800634429656 0.0336794658197067 )
( 10.445569121223082 3.448454587159422 0.0534242805241932 )
( 15.411482842607702 1.149537255334562 -0.0974495014749927 )
( 15.178909291118368 1.2184281284662544 -0.1071793543476028 )
( 14.891589480058776 1.3246566477329995 -0.1171793324955931 )
( 14.643728335838755 1.3945616105946932 -0.1242766242060327 )
( 14.401139033199405 1.4695446798833782 -0.1271991720604928 )
( 14.149885416043158 1.5639189729359704 -0.1265056350082174 )
( 13.882829993612656 1.658417576545633 -0.1219766196190557 )
( 13.595214565444254 1.7675881161009326 -0.1129775291224203 )
( 13.294806262259865 1.9022671865077216 -0.1006659391507112 )
( 12.978579108922847 2.050683734752645 -0.0866887817447636 )
( 12.634386371437536 2.227298735976225 -0.0699914917540196 )
( 12.288186742027245 2.3970924300069814 -0.0523121261538402 )
( 11.97112584781452 2.536436498836235 -0.0364408342388785 )
( 11.679813553174458 2.648009340725169 -0.0216330224560966 )
( 11.388472931488836 2.7466070322907883 -0.0070230680474274 )
( 11.081326325890908 2.8554294123306185 0.008477294376873 )
( 10.749026462554417 2.986578078116687 0.0271847667909682 )
( 10.39577178469444 3.155899247828507 0.0455279829990012 )
( 10.0575798015811 3.395875585286284 0.0631631441099759 )
( 15.345347364126908 1.0798941103153996 -0.105030044057145 )
( 15.103524642015962 1.1434584625456048 -0.1147248134472576 )
( 14.810788851250043 1.249314582437853 -0.1228900536354201 )
( 14.562389528281594 1.3160227429163016 -0.1277453047781315 )
( 14.312162029700769 1.3859069852575705 -0.1286986027410736 )
( 14.046361649658111 1.475310493468804 -0.1261793360064416 )
( 13.766764273043975 1.5608462084040535 -0.1204800103554896 )
( 13.471663899488998 1.6667758546222042 -0.1102134613830481 )
( 13.152087732038824 1.8012824200346356 -0.097161488031624 )
( 12.810963850895709 1.9406940060594269 -0.0826124678863229 )
( 12.453299122816643 2.1101738854272387 -0.06522585691493 )
( 12.086387722268402 2.2903949255266376 -0.0466675787199246 )
( 11.75470677213238 2.425375760186926 -0.0297233494662565 )
( 11.445839990786869 2.527821132279181 -0.0139479045963198 )
( 11.125472496637531 2.629753255659669 0.0009503049461925 )
( 10.78008372968078 2.737540463121009 0.0174955261605197 )
( 10.413571295234584 2.8779046062213363 0.0359570102290699 )
( 10.04372132822027 3.0716054391344843 0.0520638365645678 )
( 9.712524305878498 3.3600155781534564 0.0689196555693332 )
( 15.28320268505298 1.009967360845318 -0.1117909140893161 )
( 15.035926456812485 1.069442168116134 -0.1202724289968178 )
( 14.738398381804844 1.1702365016496457 -0.1270334420570049 )
( 14.490036918946368 1.2335126591043015 -0.1299929110521932 )
( 14.232417688710182 1.304156582465134 -0.1292652243207621 )
( 13.953120294600268 1.3874756520453826 -0.1254932788850885 )
( 13.665174071398717 1.4610588489362293 -0.1190084099722431 )
( 13.356604230346957 1.5665696453219573 -0.1080352076112404 )
( 13.016127499592416 1.7010454254317868 -0.0939395943086673 )
( 12.655264301210073 1.840241869413675 -0.0783546281225298 )
( 12.278035075709989 1.9973207111859144 -0.0597395086208365 )
( 11.896673363279708 2.1609531513403657 -0.0405240853647705 )
( 11.548942951246875 2.297187232375759 -0.0228221067163247 )
( 11.212519473711652 2.404642241443553 -0.0065496513437335 )
( 10.861635773784634 2.499027796204037 0.0081521363493395 )
( 10.487161460694535 2.60856667605202 0.024355424303001 )
( 10.09438682189793 2.761075308537287 0.0411374520807901 )
( 9.725729925951134 2.9945838611559203 0.0553297585694555 )
( 9.381973791835824 3.3466952569633985 0.0714163080090734 )
( 15.228908396932768 0.938112539276562 -0.1177757853661311 )
( 14.978304616094386 0.9935104672393188 -0.12465035847515 )
( 14.673561199528525 1.0850406099626173 -0.1298362470093308 )
( 14.42343935340194 1.1484832282055284 -0.1310598594213624 )
( 14.157961509379335 1.2153457645265713 -0.1292333838149457 )
( 13.865340837298051 1.2947782834011723 -0.1244780335843423 )
( 13.57562285870284 1.3684691965845048 -0.1173539911313364 )
( 13.253062150359062 1.462336326479747 -0.105916099052671 )
( 12.890097287842863 1.5920996309724598 -0.0909784531334954 )
( 12.507263880678558 1.7349783366938851 -0.073969184380523 )
( 12.10357210011945 1.8888576769326504 -0.0539640025683872 )
( 11.715407286082185 2.036856860974201 -0.0351627816289872 )
( 11.347173219455485 2.162691544882647 -0.0176971034784296 )
( 10.979189328997466 2.271387093722061 -0.0002358504867884 )
( 10.607525311344366 2.3682872429374524 0.0154799275924363 )
( 10.212381850120403 2.488585420356313 0.0310537080047275 )
( 9.80159154774163 2.660652870398223 0.0458858968954007 )
( 9.424611459189888 2.930554014962604 0.0590379317368377 )
( 8.987079592180132 3.3018075457447784 0.0708782253786742 )
( 15.185552949104164 0.8675722507789875 -0.1218848131830247 )
( 14.926616992043597 0.9141148133804028 -0.1276298721033034 )
( 14.615516954355073 0.9991192285879616 -0.1313489929078297 )
( 14.360359211118096 1.061289503790349 -0.1311797502807034 )
( 14.087559195110964 1.1262182928096562 -0.1286075327332307 )
( 13.784718226738685 1.206032986006018 -0.1229977591298852 )
( 13.482965414492224 1.2767523927188682 -0.1146019173942568 )
( 13.153532368172492 1.3598574299711348 -0.1028753318997063 )
( 12.778926489827288 1.479148607353979 -0.0879043162327049 )
( 12.373786901242603 1.613363437814931 -0.0702365677929238 )
( 11.948554712530983 1.7696145706825706 -0.0503280078163237 )
( 11.545614466635278 1.9195924109543585 -0.031653443397474 )
( 11.152726221352417 2.034741418046222 -0.0133756685496563 )
( 10.762341100981162 2.133681216210514 0.0042816174640721 )
( 10.36070861620186 2.2446089293562745 0.0220772881666328 )
( 9.94585441970536 2.375031881686253 0.0384688120101949 )
( 9.530768160271728 2.567848434765647 0.0501091866659472 )
( 9.089849754139037 2.8682000625843624 0.0622428315472212 )
( 8.4863644462656 3.1951447518585248 0.068807716429849 )
( 15.145558281984242 0.7926106111340665 -0.1251302378199308 )
( 14.88353633372419 0.8389348254685645 -0.1294325047446493 )
( 14.570678559071652 0.9174904464252972 -0.1319010902700007 )
( 14.30631757829716 0.9689983168716776 -0.1311157894495176 )
( 14.025619320761612 1.0342902344653362 -0.1276960646891166 )
( 13.715480728852755 1.1168134478328091 -0.1214428699962856 )
( 13.39990405133392 1.179493955071566 -0.112457266332599 )
( 13.06431033864077 1.254462391397983 -0.100531033700034 )
( 12.670423867686754 1.3690170659488048 -0.0844655407450125 )
( 12.247033565859017 1.497883989452768 -0.0659451461879966 )
( 11.80557562794246 1.6463028759401386 -0.0468205034363655 )
( 11.373544732093633 1.7928343804739932 -0.0273955168756083 )
( 10.965911356556294 1.9113280371685295 -0.0082550539352211 )
( 10.567797466155715 2.0067868636649986 0.0081753898105014 )
( 10.13862334591089 2.1209809734274123 0.0253141798920015 )
( 9.694863699800504 2.261026932040424 0.0396469745940517 )
( 9.266802205283874 2.4709442118718075 0.0516770197842005 )
( 8.729990464659407 2.781693735205168 0.0624994309532876 )
( 7.877873854843385 3.0129612310292373 0.0633130031268565 )
( 15.108489691694404 0.7166026470781506 -0.1272450942007139 )
( 14.845610444108331 0.7648431739314387 -0.1305634471324342 )
( 14.529429336195312 0.8409766027167731 -0.1319714838177746 )
( 14.260282139267716 0.8874089427890617 -0.1306449522442032 )
( 13.96943477341419 0.9470954650682004 -0.1263496068675902 )
( 13.646182332482208 1.0158253111600717 -0.1190827150230516 )
( 13.320439111620392 1.075226779235253 -0.110289547020947 )
( 12.978494858567142 1.145804890462309 -0.0989202989166577 )
( 12.558704469904296 1.2548582003203834 -0.0812317281734404 )
( 12.116665561043227 1.3860576626733287 -0.0612686355299291 )
( 11.671274053401678 1.525864968352412 -0.0428855600905496 )
( 11.226066975273998 1.6700576048041818 -0.0229043142744723 )
( 10.80117177178275 1.7936038912697898 -0.0034295240553385 )
( 10.37563567498426 1.883306567095224 0.0130524447008893 )
( 9.933673131398896 1.990705083367124 0.0285431634952146 )
( 9.471765349140158 2.139640156312166 0.0405486954745425 )
( 8.980135650623952 2.3701208596678534 0.0518295264078169 )
( 8.372370889962069 2.6804879259148047 0.0583344636884788 )
( 7.120103817872776 2.726671244599767 0.0545780389591475 )
( 15.074497509566584 0.6487875501056449 -0.1280133028051531 )
( 14.807285932052146 0.6918346923613844 -0.1308323181378663 )
( 14.488752169751614 0.7641347186314118 -0.1316326011593663 )
( 14.21825401998512 0.8100936507372568 -0.1297685610675452 )
( 13.917930594104444 0.8613196535903431 -0.1250722825896537 )
( 13.588317184157908 0.9173535603234264 -0.1172246810548767 )
( 13.25249386263483 0.9797239370802988 -0.1079472803351924 )
( 12.892094036797278 1.0534872257837598 -0.0958083130512537 )
( 12.453233723189651 1.1494047052455167 -0.0775257870694766 )
( 11.989086891851008 1.2753514827664036 -0.0570499119875718 )
( 11.536832402450589 1.4065511457262996 -0.0379650122165303 )
( 11.092201882283977 1.5344920820081676 -0.0192729485680606 )
( 10.650864793267983 1.651534584129914 -0.0007889160875332 )
( 10.195919668041384 1.7458993222169876 0.0170819971360636 )
( 9.730922883403084 1.8515393520271228 0.0339978198997398 )
( 9.24910140256551 2.006737667867477 0.0463315412126827 )
( 8.677477662799774 2.249157719871982 0.0544257416901197 )
( 7.87710608067318 2.497802043531397 0.057018760509894 )
( 6.382870941419266 2.404089268856138 0.0502994248259293 )
( 15.047745236099423 0.580245279438719 -0.1280749823051063 )
( 14.77550868341151 0.6211975209080118 -0.1302737755198318 )
( 14.44984195709298 0.688578641745402 -0.1307598097461289 )
( 14.176735654716836 0.7280050780712106 -0.128810165348051 )
( 13.870121003964908 0.7776197529860734 -0.1236880584463659 )
( 13.53939044693384 0.8356100943783008 -0.1161534574601519 )
( 13.199411224759295 0.8955032563798172 -0.1067202425602733 )
( 12.817085660997469 0.961907314442612 -0.0928013628737505 )
( 12.36616803947962 1.0517848593945456 -0.0742470441159468 )
( 11.893300987643087 1.1708319541885668 -0.0540582425908783 )
( 11.42303938048486 1.293848357169351 -0.0340083062718906 )
( 10.95507014201188 1.403145859399481 -0.015220828159439 )
( 10.494869936496002 1.5044381634804993 0.001640506804856 )
( 10.022749219086784 1.598750906448857 0.0184528224404364 )
( 9.53924475939384 1.710575393195431 0.0352691473970933 )
( 9.018382063267808 1.88597453546928 0.0466294144631954 )
( 8.384749135120842 2.1209981128954016 0.0552143310496626 )
( 7.339311522906078 2.2498724055799624 0.0567704477436703 )
( 5.74720370233827 2.092923295545856 0.0462135149674667 )
( 15.026457230030738 0.5092516534434287 -0.1274778066460893 )
( 14.753372881820582 0.5508540535178479 -0.1293593471432953 )
( 14.418887550971316 0.6152373290498506 -0.1298058689146154 )
( 14.138486302474888 0.647787942400289 -0.1275177386703737 )
( 13.825135286071122 0.6917994115330047 -0.1219248589187551 )
( 13.489971545138498 0.7477946082639487 -0.114558165409103 )
( 13.144445645539182 0.7940323589126557 -0.1050897424266933 )
( 12.749678037268398 0.8557899882581151 -0.090444958122746 )
( 12.296130355278295 0.954247932550965 -0.0720144088022871 )
( 11.815982925848012 1.066571075687912 -0.0521137090531678 )
( 11.321995584762517 1.1840739562469371 -0.0322977357859554 )
( 10.83082204088185 1.2777256689822 -0.0127025619265836 )
( 10.352888023904532 1.365123299188847 0.0036840473866578 )
( 9.852932752254754 1.454224726363036 0.0195517568683844 )
( 9.352341028914674 1.5676293911139894 0.033876050458025 )
( 8.77386666953808 1.7534273318929552 0.0431137282166304 )
( 8.063116163433905 1.963562740612836 0.0518666646866497 )
( 6.888452993279483 2.002784265005037 0.0541501313864714 )
( 5.162099895969429 1.7786858352569503 0.0429516965056697 )
( 15.007708395334408 0.4478639645743933 -0.1265361118721419 )
( 14.73300946179084 0.484578686964107 -0.1282766360046991 )
( 14.393411254124 0.5411165222131108 -0.1287820219420418 )
( 14.10583380025847 0.5707832912012362 -0.1261284553343367 )