/*--------------------------------*- C++ -*----------------------------------*\
| =========                 |                                                 |
| \\      /  F ield         | OpenFOAM: The Open Source CFD Toolbox           |
|  \\    /   O peration     | Version:  2112                                  |
|   \\  /    A nd           | Website:  www.openfoam.com                      |
|    \\/     M anipulation  |                                                 |
\*---------------------------------------------------------------------------*/
FoamFile
{
    version     2.0;
    format      ascii;
    arch        "LSB;label=32;scalar=64";
    class       volScalarField;
    location    "0.0008";
    object      k_LES;
}
// * * * * * * * * * * * * * * * * * * * * * * * * * * * * * * * * * * * * * // 
 
dimensions      [0 2 -2 0 0 0 0];
 
internalField   nonuniform List<scalar> 
13597
(
0.2734998072036286
0.2730202700379655
0.26675816211634
0.2564797621135031
0.2463686327075407
0.2368388361157571
0.2260759632155339
0.2133985510603963
0.2010241676294635
0.1890635282837263
0.1765931867182759
0.1656699037800618
0.1558646443369922
0.1468153851527789
0.1397718412019688
0.1344466485569102
0.129902848822782
0.1263497320127279
0.1242667458150757
0.3003199646169129
0.2994872411433344
0.2884292119683311
0.2746079807391556
0.2608034193520897
0.24574336319127
0.2297789408961162
0.2133407766476721
0.1977623986974803
0.1833073358357407
0.1695785520679327
0.1574225672419269
0.1479763976616862
0.1411692974632895
0.1371190783633097
0.1355786204022412
0.1354029328243818
0.1361613781037472
0.1378551963756885
0.3147519019736273
0.3100069536637392
0.2916650647811586
0.2700928317226852
0.2506140824369001
0.2309503950562324
0.2112608083644397
0.1935206174675642
0.1782844150922032
0.1650243729284096
0.1548267708056011
0.1483603600438155
0.1454291051323311
0.1450123414466441
0.1462737708686153
0.1484340987452375
0.1506638889416134
0.1526089420211311
0.1544624901037435
0.3154895312569641
0.3038168492221591
0.2778101262957493
0.2487145975363725
0.2241811309511639
0.2023952169905971
0.1828446885120694
0.1675564333601568
0.1563963907495079
0.1485926890098811
0.1440213636428483
0.1426230167001067
0.1430042114974377
0.144465686571219
0.1460888127952589
0.1471801820882401
0.1475169393583518
0.1474392635362075
0.14727016323342
0.305045682006633
0.2845180917069268
0.251683311196601
0.2191796989180792
0.193959679003874
0.1744905303348511
0.1590566726253715
0.1485250818225419
0.1425032104392012
0.1394739624191612
0.1386823410384036
0.1391050473844217
0.1397542395178658
0.1406725405733526
0.1409747531066023
0.1408929206635453
0.1401945616382185
0.1393232883863494
0.1383224012930257
0.2855562133128455
0.2574102446355951
0.2198570702088794
0.1893443891473701
0.1683627756312721
0.1539894662449295
0.1447623927422861
0.1395383807988198
0.1371758018309642
0.1369642064354201
0.1382323652768179
0.1391134459893364
0.1395307602410106
0.1398463749306594
0.1396933609485892
0.1391658086883292
0.1384316899463522
0.1373814446497789
0.1358874900886423
0.2588519611272306
0.2268701569624919
0.1910250348130809
0.1660327556155042
0.1514926772015637
0.1427697245976516
0.1384233861784673
0.1374650477323379
0.1383715586981654
0.1401083041159125
0.1416654290763171
0.1426505080277852
0.1433106790262112
0.143507107755271
0.1431157482664436
0.1424004320476567
0.1411913485755296
0.1394545199403255
0.1370925802771192
0.2316434394434785
0.1992166493210828
0.1689762228597213
0.1510605014551115
0.1423053368798319
0.1394297031457111
0.139577363660516
0.141518155762225
0.1446588858409998
0.1470952755173011
0.1484799543002489
0.1495432492113782
0.1498698559459296
0.1495409459455609
0.1484602449857508
0.1471825899472706
0.1452476571921733
0.1426653817583388
0.1395005723575096
0.2061082753680579
0.1759776847579981
0.1530202165603473
0.1429002479921801
0.1400842524714057
0.141875249986094
0.1455098902903455
0.1497018344881009
0.1536357482808226
0.1565351418897174
0.15781709001204
0.157919487277588
0.1571051396132671
0.1557225677210199
0.1537825928026128
0.1516970295907734
0.1490947728263632
0.1459010686110861
0.1421507664251192
0.1836105478589736
0.1582319421057947
0.1435135247391907
0.1409667353732382
0.1435854976986781
0.148560045115525
0.1546027993541575
0.1602980512776935
0.1642704602932381
0.1666805580120083
0.1667890644313032
0.1652262581077264
0.1632337957561556
0.1608029816559062
0.1582175500805196
0.1555382605043795
0.1525049000461467
0.1490302037848315
0.1451880962481987
0.166144976950936
0.1474996151775468
0.1406686296136151
0.1436348318359913
0.1497575526616631
0.1575622858049512
0.1656058136929701
0.1715516900173019
0.1744743796323558
0.1757252783168144
0.1743102556513042
0.1713335028837808
0.1683496390239054
0.1649459323987351
0.161817483503682
0.1588488817660904
0.1557843344262135
0.1524239397937407
0.1488567630982457
0.1532782837042181
0.1415882346299518
0.1422925294437294
0.1496302663859737
0.158645015684357
0.1682589963158849
0.1761956054483189
0.1812551532680994
0.1830551490905507
0.1828929085104524
0.1802565622840127
0.176525998973202
0.1724923955625066
0.1683001066735335
0.1648953278055199
0.1620283934223001
0.1591825164213341
0.155955384619757
0.1527897987469133
0.1454033293519308
0.139923958387883
0.146562837105867
0.1573562088079803
0.1686381052111899
0.1788337082206344
0.1860332089631148
0.1900849563474304
0.1911941683972112
0.1891284125448713
0.1848941835130322
0.1803310618360286
0.1756089908721485
0.1712987036814505
0.1681413179613431
0.1653231420366901
0.1627239393996397
0.1600352604761599
0.1570428635340917
0.141816008477266
0.1414398995721344
0.1525887062587818
0.1657630185830642
0.1783634986562636
0.1880266636064055
0.1945359855498082
0.1976524068316144
0.1976254336910446
0.1942715746902845
0.1887439818676869
0.1834561237636086
0.1783646919054378
0.1743387259263478
0.1714561297544435
0.1688168345323906
0.1665086879712713
0.164487014210483
0.1618959207879814
0.14125050178018
0.1451837742350461
0.1606604919198583
0.1752755784887223
0.1882637328729923
0.1971379743398285
0.2022177617070971
0.204004046456293
0.2026781129271078
0.198587652241346
0.192249773779844
0.1863200550007394
0.181239742841828
0.1774923662056136
0.1749950991703115
0.1729086481806774
0.1710043407365551
0.1692748380366304
0.1683415444010524
0.1427458182898063
0.1499503918396529
0.1683303158504205
0.1839548741587339
0.1970259455757478
0.2054285093442356
0.2096946427663142
0.2101804988389195
0.2069004354469374
0.2018292277421489
0.195287655622992
0.1889777162713126
0.1842463927515239
0.1809317534802229
0.178704726075402
0.1770543357014514
0.1757598447586752
0.1752903972549271
0.1781946280427461
0.1453201131547168
0.1554890372536295
0.1759496169651214
0.1917418059131193
0.2039653663212752
0.2118337904176208
0.2157263790029633
0.215399656416968
0.2104988625930191
0.2046918877619841
0.1981220390009442
0.1915343962392613
0.1870704997777182
0.1843090672652347
0.1824913067080545
0.1814777019928133
0.1813994513921316
0.1840487812481042
0.1912388758117762
0.1490365843601265
0.1615083998845198
0.1835939049245387
0.1993453771263226
0.2105164273162396
0.217505167725959
0.220549399854598
0.2188969459695778
0.2137124559312491
0.2075432600905921
0.2006341200174209
0.1942085598667964
0.1900768371761822
0.1877085249718069
0.1867440458670855
0.1867225752355824
0.1890480927816365
0.1958841074736465
0.2030783899023837
0.1533065476982712
0.1670880499750651
0.1905688394612137
0.2061836933725321
0.2168690882754821
0.222916694120952
0.2241938633054724
0.2215332437901901
0.2165233201653821
0.2099361499920237
0.2027238084959257
0.196847933248406
0.1932805302997872
0.1916562764586974
0.1915255913091313
0.193044004639082
0.1989254797716061
0.2096316878804479
0.2116194554654646
0.1573159709540767
0.1727033076343428
0.1972350368182986
0.2121776163127256
0.2220561276468991
0.2271048389606876
0.2276880022480511
0.2245012975604086
0.2190759448225111
0.2122667291765559
0.2046835915648742
0.1994236916034201
0.1967286571917296
0.1959242200407566
0.1968896751284008
0.2008841925752898
0.2109416639767182
0.2225786231888482
0.215318965968528
0.161598184733646
0.1779830687570936
0.2026620551360888
0.2172690691865502
0.2262285760736456
0.2300981451034661
0.2309259012321613
0.2276332944876932
0.2212023621160076
0.2141639416440434
0.2071500556128264
0.2025557311882508
0.2002914563839571
0.1999436271245676
0.20273162745158
0.2106215277755019
0.2244308366291623
0.2338553130039764
0.2090909765416456
0.1655552497734064
0.1825470681519302
0.2074132613501957
0.2213381543693166
0.2297318337334293
0.2333235730226693
0.2337694629042722
0.2299404218348218
0.2228167709183507
0.2157159239292155
0.2095516414908945
0.2052296970511954
0.203284555836724
0.2042679416389862
0.2093841875618664
0.2215498940605386
0.2378844856246037
0.243060300778847
0.1908039826393095
0.1687970884810751
0.1867146721445515
0.2117025290236758
0.2247695092753973
0.2329208418180455
0.2364354687468158
0.2365103560643188
0.2317763754335285
0.2243572961891663
0.2173235592771157
0.2115286889106223
0.208068006247607
0.2068524150450474
0.2094377220951302
0.2179363226507633
0.2337092790255919
0.2508187681545177
0.242662874250773
0.1719769786282266
0.1720324072581714
0.1906578952024494
0.2161337039353654
0.2290359363113932
0.2361477550220423
0.2385505030457398
0.2381913804449219
0.2334668536136922
0.2261486382177525
0.2191858116373364
0.2135665649153624
0.2110773660335077
0.2110857188153208
0.2154401419736416
0.227593215935895
0.2464324890485351
0.2624633917985505
0.2352556019717652
0.1551491542494283
0.1751867077052294
0.1939578197229577
0.2199763550044624
0.2330842014712656
0.2389370952508161
0.2407260653693609
0.2399312447039739
0.2347370783022139
0.2275906124356053
0.2210115087127306
0.2156254423943975
0.2136822660047926
0.2149954174497163
0.221951142628404
0.2370057105891189
0.2580842307688597
0.2698384989983142
0.2270121662822976
0.137526563481063
0.1782982076474652
0.1970959797113311
0.2232501926415509
0.2358010892257926
0.2413009316407328
0.2436245846819146
0.2419278858902601
0.2355745065397399
0.2287053558083487
0.2226192875651254
0.2176990213223239
0.2163120648371539
0.2189638205100521
0.2285298731900221
0.2462714527567976
0.2689595888850651
0.2696605432279003
0.2142862373056198
0.1250351776900283
0.181241537412133
0.200211783103151
0.2262208146890694
0.2381700904821033
0.2436769361411955
0.2462271225575825
0.2432262197333924
0.2365160257134029
0.2300887195384044
0.2240143655914982
0.2196922886928919
0.2188209923445622
0.2227883228738309
0.2347364230370731
0.2560274001380864
0.278905364090452
0.2682588300285873
0.2011682802650821
0.1148009785906737
0.1840892629956314
0.2032614396371027
0.2287334947589371
0.2409612749587622
0.2465274196597082
0.2483060294591909
0.2446996839998933
0.2381624742048057
0.2316176570473506
0.2253164761796014
0.2217945305189089
0.2214520128662498
0.2264651582649953
0.240960319612426
0.2663984418425223
0.288313206006265
0.2703324596504259
0.1925165746490105
0.1063965323082729
0.186998779899671
0.2064177230855355
0.2314063398227724
0.2438102147431441
0.2490896990497571
0.2498735385052589
0.2460108797505536
0.239487328204917
0.2327450158663434
0.2267800835509184
0.2241046626512118
0.2244563117239692
0.231455832114917
0.2478895303731448
0.2751722305681683
0.2948378042919344
0.2695614354854279
0.1856332853289917
0.1016596974245322
0.1895623650521813
0.2087917293283623
0.2338215822465941
0.2461509745391028
0.2510255364495044
0.2507644422751316
0.2467651250844321
0.2401441755094782
0.2333032236532262
0.2278198040609831
0.2258402221165107
0.2271598318437468
0.2358538857846517
0.2546538015457331
0.2827212963166172
0.2924848636915699
0.2599422805839826
0.1791363505893159
0.0990451983488203
0.1921212450712125
0.2111284090253404
0.2363089736989664
0.2482368685105159
0.2524239178261108
0.2512954601750008
0.2473005195861091
0.2406918124405691
0.2341195408708203
0.2289007554593741
0.2273073555341641
0.229937875318259
0.2393212016239395
0.2607368673650709
0.2898337791223353
0.2897812475846814
0.249829493045473
0.1728299666051426
0.0972675987215345
0.1945966888260631
0.2137812962799939
0.2393484179409926
0.2502125027715752
0.2534896846509911
0.2521932360787579
0.2480614639168963
0.2412526704418917
0.2348694706322202
0.2299630650192666
0.2288317633139323
0.2329691939586164
0.2435522869546083
0.2674276162576154
0.2962479211871203
0.2922657467314398
0.246899688600241
0.1672888786507319
0.0946360374049335
0.19677701127798
0.2162424459542236
0.2418134495849557
0.2517524812532196
0.2544595944759834
0.2534179064858478
0.2490369347193576
0.2419866313425035
0.2356399502184427
0.2310074637228386
0.2303939854540127
0.2354870765610774
0.2473213594070359
0.2729480463510078
0.3028173575835485
0.2963389508558898
0.2465244761182173
0.1637839046778077
0.0918326198821943
0.1995431782821696
0.218957783060318
0.2436531480589338
0.253089153012311
0.2556785879240871
0.2545540330874681
0.2497877761643966
0.2428290445843646
0.2369059297351935
0.2326385928629524
0.2323353059748387
0.2377193351837422
0.2504513178403723
0.2768555178275116
0.3085432156530809
0.3011383589318943
0.2472828505103813
0.1616779004165841
0.0903305596426648
0.2027041432114992
0.2217641233114769
0.245617729740816
0.2545617423737187
0.2574153635008954
0.2556213677578187
0.2504002359583376
0.2436379530286684
0.2379207815306287
0.2341484279010829
0.2339551045699972
0.2396205640567995
0.2536189348883583
0.2811803052651844
0.3126059132961403
0.3034070651793792
0.2471075137773403
0.1597975337533902
0.0893572087894733
0.2054874249419432
0.2241441767972035
0.2476452643673743
0.256351679386609
0.2593332376097254
0.2568903343455184
0.2510671144296345
0.244172772496795
0.2384542621482817
0.2352558468046693
0.2353718418954468
0.2413181360299446
0.2563394716912833
0.2851667783375251
0.3166190060849062
0.3052558105916266
0.245911254346595
0.157687674039043
0.0882044056228218
0.2084430319764707
0.2264597450067186
0.2494314146846565
0.2583246335978503
0.2609976448398599
0.257915245456292
0.2518030921814531
0.2446670308955573
0.2391016503446837
0.2363380455487075
0.2367813291599548
0.2431790664280532
0.2588091041404898
0.2885531016076129
0.3199114922431423
0.3065058565659139
0.246281182805607
0.1575625860358369
0.0873666312858675
0.2111244056061717
0.2287524944407724
0.2511343778297792
0.2600143751014518
0.2624116946966724
0.2584555085589159
0.2521139690980368
0.245184666528329
0.2399915466934891
0.2371808101693037
0.2377500048495325
0.2448427764122498
0.2618454399004655
0.2920728039557289
0.3213060815816726
0.3067190876975663
0.2459598463381684
0.1575954899996334
0.0870908710575207
0.2129414730383011
0.2305659842153243
0.2526018132786134
0.261169982058616
0.2636097715054182
0.2589333860608683
0.2522994007153889
0.2453780594519641
0.2403440968623783
0.2376690247766456
0.2382874593955398
0.2459396702900263
0.2645325792997914
0.2958454769340499
0.3217946511027761
0.3056543225726327
0.2440600480945734
0.1562240265729513
0.0871224440062017
0.215025574978569
0.2324875360619303
0.2537851888360052
0.2621474725458546
0.2646395948380088
0.259282763537876
0.2527104436568574
0.2456841201505343
0.2404292786138526
0.2383346964360194
0.2390049524932625
0.2469699289571023
0.2662271907526705
0.2985180644738713
0.3223969684580047
0.3036040026333484
0.2425621367384736
0.1553209853570441
0.0870989053413849
0.2171090895919342
0.2344990458785472
0.2554876233964881
0.2633712931603493
0.2654897262165588
0.259869557059406
0.2531710501270311
0.2462623855630061
0.2409432124164523
0.2391884960947323
0.240188283770741
0.2483332325051982
0.2679015992319162
0.3004926766185842
0.3224136027567106
0.3013190117120071
0.2404904958171763
0.154100970947816
0.0870857946456735
0.2186864212779583
0.2358369194130524
0.256814612895217
0.2646832261455641
0.2662500426166668
0.2607459703956969
0.2537758645042016
0.2465261012167455
0.2413763994363538
0.2398314952978987
0.2411705656182467
0.2496335912144585
0.269452828925829
0.3019268630689534
0.3228017298093348
0.3005775810429015
0.2384898979936673
0.1525807165291136
0.086919640973682
0.2203338558792363
0.2373472167348291
0.2578092176302239
0.2654462675358135
0.2664912097181925
0.2611585909395871
0.2542043827324475
0.2466265725145616
0.2414457338885825
0.2403233622536938
0.2419072813328923
0.2504735932530133
0.2701120401575013
0.3030444081836734
0.3244547210914155
0.3006095340691214
0.2369786242627092
0.1513671820674795
0.0862435941971658
0.2220960278740882
0.2392108302450835
0.2593232010521438
0.2660440797282064
0.2663901590066632
0.2614836547062671
0.2547281499182611
0.2473912795626895
0.2417537823388996
0.2405898945601941
0.2426936432440797
0.25138952169285
0.2710295858372735
0.3042906996823413
0.3239256165874272
0.2986057601982666
0.2358857425669104
0.1509463141400682
0.0860715156143861
0.1530907798102636
0.15382560434034
0.1548325385489393
0.1566634539533001
0.1577318094922694
0.1571676448065295
0.1565118154793264
0.1557313619308282
0.154600475906556
0.1534331839203692
0.1525296934665392
0.1527086611550439
0.1535319701414977
0.1546314302165674
0.1557842662121011
0.1571213648720731
0.1596576871524449
0.162302377442828
0.1649660813125112
0.1514378376544185
0.1517413878145571
0.1511414642546705
0.1515110736137914
0.151565428622407
0.1508298800314687
0.1507010222113002
0.150632520890508
0.1502273726242213
0.1501269916205175
0.1506497795157371
0.1523530141229122
0.1544121715454177
0.1562181898648904
0.1580608769432614
0.1598110596489535
0.162103713462355
0.1644615587557183
0.1665292900920233
0.1534901195177815
0.1542527767057113
0.1538568658619253
0.1554390468940207
0.1567697071272423
0.1579273696829416
0.159475166216952
0.1609946267982281
0.162196153807153
0.1638012707331218
0.1658441128437448
0.1678664841069305
0.170112795413397
0.1728960362944011
0.1758394805015633
0.1789169843990806
0.1816295755568355
0.183835049941638
0.1859986569466809
0.1598624463641368
0.1617104978504162
0.162801829750615
0.1660089534549028
0.1682294244588809
0.17078018249806
0.1732289106583099
0.1753561116269127
0.1766492357926429
0.1778313736455878
0.1799536360137582
0.1821217886088709
0.1849505111484098
0.1886461514454475
0.1918912893580503
0.195239168932379
0.1987025108719177
0.2020320138851764
0.20580162860968
0.1682739693512873
0.1709607153490403
0.1726562398553501
0.1762062800066153
0.1787614084303509
0.1809905105830928
0.1827234800812166
0.1840769600791849
0.1854333911456945
0.1870354690398312
0.1895510764026448
0.1927751355671903
0.1968677556291338
0.2017238079066985
0.2059560510620078
0.2100241156093338
0.2143374561688012
0.2181881934052102
0.22202741498532
0.1762958345054628
0.178775564789182
0.1797763935842347
0.1826981340736195
0.1850457509493305
0.1863443639087776
0.1874106602456547
0.1891542300094204
0.1915134269335889
0.1944925798010668
0.1982458884067525
0.2027058455405085
0.2081792083848679
0.2133663597120676
0.2175320420404666
0.2212441328853276
0.2239773687099266
0.2260530772426671
0.2281175917118164
0.1831610828489561
0.1836417996317265
0.183330462210604
0.1858580112447667
0.1879229986217353
0.1891263394751443
0.1916019387090304
0.1949752611120871
0.198875400533778
0.203029549763294
0.2075918752960842
0.2125466323931008
0.2173462308649769
0.2215270725197737
0.2243833909221907
0.2263283227610032
0.2271267434950984
0.2273692078023894
0.2274302799169799
0.1864236662191046
0.1844343426765927
0.1841135768581313
0.1870618322147828
0.1899866468245048
0.1930266616793966
0.1977076332740092
0.2024236198714742
0.2074554858226733
0.2123584780993919
0.2168235372296766
0.2210953894183401
0.2236999189675981
0.2259272020385472
0.2271893764863459
0.2274516948960244
0.2270343308720782
0.22605177510792
0.2246559170088655
0.1870035099753549
0.1840839014963536
0.1847856803055223
0.1892808953125339
0.193832337728309
0.1993509203837636
0.2061609539063162
0.212486806742088
0.2175969571363831
0.2215861290039635
0.2244080465635026
0.2266700513480115
0.2279274623644441
0.2283332165279688
0.2279198632346945
0.2268246985222032
0.2255536855204773
0.2239432417556271
0.221806389059562
0.1857011259647406
0.1833520413830995
0.1870044183077485
0.1937494033252033
0.2002439667917274
0.2082180606661131
0.2160191224743325
0.2225662570036468
0.2265227853350456
0.2288833938756809
0.2303559358139878
0.229932754838742
0.2294996117888894
0.2290163445593337
0.2277618215174699
0.226111236854746
0.2242307378023887
0.2220979328577258
0.2196481819566621
0.1832432400468279
0.1829546362855555
0.1901760044993408
0.200065924515388
0.209309303183895
0.2185454839237098
0.2258493341022723
0.231023876891135
0.2332521673743753
0.2338977737757378
0.2338236376977847
0.2323357999593355
0.2305250617305923
0.2288880059236672
0.2272581222048047
0.2255271977186222
0.223421582163907
0.221069245430958
0.2185149739490401
0.1825903677959783
0.1848068813944334
0.1951008823087503
0.2077645663015174
0.2188471633593064
0.2283094576236562
0.2351380830462661
0.2386813026183954
0.2391591536336489
0.237962908131298
0.2358956134365553
0.2337127648803633
0.2313721640935592
0.2290383798729392
0.2270052860084948
0.2252910863224868
0.2230497036715686
0.2206583174287376
0.2184499725847998
0.1834765897261296
0.1886415649262896
0.2029426610096388
0.21732438810501
0.2288505121391054
0.2376735789346103
0.2429359449924332
0.24465572933047
0.2439433760988695
0.2412474953413782
0.237353359595492
0.234285715060916
0.2315890608782026
0.2294256591404468
0.2273413430765286
0.2252429229820331
0.223323981500448
0.221358536840731
0.2195024482604942
0.1855596662318217
0.1945699378495423
0.2120541293933618
0.226987884493338
0.2384675312196337
0.2455420916596419
0.2491773458645149
0.2497203814393954
0.2476123257297652
0.2432980495165529
0.2383531914751775
0.2346926246947664
0.231653723446267
0.2296264109664584
0.227714379002448
0.2257266211825659
0.2242317743059058
0.2228016440024877
0.2215630044302266
0.1901763129641641
0.2014582658239431
0.2203609556447062
0.2359612665807071
0.2472240280644289
0.2528327953678648
0.2546796934965416
0.2533760131124459
0.24921863457033
0.2438086778282938
0.2391406877116002
0.2351916322542868
0.2320616764271822
0.2299060189718931
0.2281083735391094
0.2267030929024621
0.2258675180930752
0.2252128165502628
0.2263138820527935
0.196516475452415
0.2093979959029118
0.2297810440377314
0.245136562535791
0.2550299361872855
0.2595144665780666
0.258959495682314
0.2559608389780261
0.2506100551815149
0.2443533180142027
0.2394919284349853
0.2353739346021559
0.2325756045282515
0.2304264280355926
0.2292949853231964
0.2285894255194381
0.2283192751777817
0.2297751394459945
0.2359191126033505
0.2021110155448011
0.2170927643497451
0.2395087895505899
0.2530762562277265
0.2611739900475143
0.2637464935321922
0.2618438880048787
0.2579878724473363
0.2517304365935426
0.2450615760841573
0.2395627746380249
0.2356873061482153
0.233294139526319
0.2313901845607649
0.2307702040839966
0.2309437955087996
0.2321312867512318
0.2378365686178155
0.2489920584472206
0.2075876625814335
0.2240726517381778
0.2477276325850004
0.2598084168867856
0.2656514083290414
0.2668096129404986
0.2643319661497085
0.2588783797862524
0.251258978379252
0.2448587112562832
0.2395513864260168
0.2360143069064241
0.2339392265985886
0.2327673117235075
0.2325568724812897
0.2341186948522736
0.2387078753987459
0.2503097216442686
0.2617550921486611
0.2138781728537948
0.2315785606687954
0.2537540261465192
0.264721404995587
0.26914774452098
0.2690198693034936
0.2658501717384769
0.2592717450835025
0.2509472417619108
0.2444327062713214
0.2396149912270021
0.236339306388065
0.234646567192834
0.2345818550368254
0.2354145558437821
0.2391774403904817
0.2484704802689638
0.264388274210956
0.2679098140357698
0.2204846157234069
0.2385553533498948
0.2587668364466274
0.2690354585643981
0.2727284537282879
0.2709833345103188
0.266592822593138
0.2591194568517453
0.2509009314766476
0.2445369618050955
0.2397086647565832
0.2368977665637959
0.2360154501479736
0.2366758469603872
0.2390736674903482
0.2458020375300521
0.260621045431202
0.2758455836906993
0.2666473603729353
0.2264129851311837
0.2436947419068098
0.2632970327073164
0.2726902108820645
0.2756143593179585
0.2729395408693688
0.2669476634675768
0.2589811319247468
0.2510082719813063
0.2446477897127738
0.2397995273276974
0.2374238807202597
0.2375697039982064
0.2392409289737843
0.2437771889195042
0.2544228295370755
0.2736580408916684
0.2854162786567781
0.2566596864773509
0.231491403821563
0.2477302001800255
0.2678020678745217
0.2756025526277459
0.2769452709352184
0.2739705958641367
0.2670213607084203
0.2587997648719629
0.2507535100017458
0.2444160589720472
0.2398621926031566
0.2380836000952736
0.2392718374851125
0.2423884413663729
0.2491743790787788
0.2649459570916107
0.2870183258956078
0.2943489457150283
0.2324003168875723
0.236107946758406
0.2514090448006587
0.2713769518441836
0.2780646310203911
0.2776637311943492
0.2742288877514152
0.267053625212725
0.258148184471768
0.250243069387747
0.2440373557187629
0.2400581877607574
0.2393439097450527
0.2413077417064884
0.2459454698235253
0.256490149297292
0.2774038923688765
0.2989806097149501
0.2879124275857624
0.2053247790470399
0.239156690474218
0.2542883437329122
0.2730280399317848
0.2789497480080469
0.2780747898861041
0.2737743078763742
0.2664543800687863
0.2575958189692464
0.2500672346157723
0.2439421334896428
0.2407159713985121
0.240802891001466
0.2434925758905715
0.2501725945517543
0.2650372980498272
0.2894893144343551
0.3074528581885201
0.2728247573717386
0.1834720145482916
0.2414392735819922
0.2563016515304211
0.2746336218689441
0.2796743437468502
0.278545326226469
0.2737297655430429
0.2658250379553428
0.2565570182797005
0.2495405951613379
0.2444340920028622
0.2419879921471962
0.242297934649904
0.2460581047051692
0.2554408916180949
0.2735977631274221
0.2988298027503118
0.3103941971090291
0.2614736266558186
0.1626813573599271
0.2429139101654453
0.2571481978735877
0.2755820135455785
0.2803490380771745
0.2791116409413627
0.2734196885430646
0.2651402165441039
0.2559786090387637
0.2489501582931157
0.2447428915933464
0.2432754899716411
0.2440827231758303
0.2486972790599026
0.2606000620190263
0.2821828326918727
0.307081377403154
0.3039802618280697
0.2424288300461039
0.1445186069810516
0.2435007230646854
0.2573542754889749
0.2755068967990169
0.2800147239007822
0.2788899221888543
0.2725220355686607
0.264108736540018
0.2559424306854607
0.2490417070221913
0.2449845047344915
0.2440858931160796
0.2456890147550903
0.2515358862994529
0.2652474584281724
0.2894418893362051
0.3144884020810847
0.2996459103419892
0.2250421784233035
0.1298277843895545
0.2439451116404947
0.2572651184108068
0.2750905046883236
0.2794345319791739
0.2779617687141096
0.2719939689783597
0.2637024981776419
0.2559353806969919
0.2489436753591768
0.2448021324344584
0.2444299560753245
0.2465367409057735
0.2543730006430638
0.2704804359531089
0.296834029121495
0.3217882639703259
0.301062163522091
0.2159886002295214
0.1204643379796516
0.2444781941478283
0.257899318500362
0.2752381903578714
0.2790592416583266
0.2769615868199793
0.2717193244915977
0.2639509055546758
0.2558719468357819
0.2483843596108145
0.244173240128836
0.2443578414466386
0.2473141927160624
0.2570435539504863
0.2756382482836934
0.3033924872599318
0.3231367013788849
0.2952010350825916
0.20688221009138
0.1145074562099937
0.2443129226412018
0.2582582634086712
0.275138411301052
0.2786244115952014
0.2763302764714694
0.271174730520442
0.2635100891711976
0.2550569746969886
0.2479009495169372
0.2439576915207685
0.2445030814314051
0.2488415877345051
0.2598639749794771
0.2796887760266644
0.3082858204037354
0.3179501930437422
0.2795870336270146
0.1938249190526806
0.1086086208497044
0.2434975192219934
0.2576106807304293
0.2742754941940714
0.2779273208058199
0.2757987469703568
0.2702212618518934
0.2626451030335035
0.2541875437927778
0.2475553072316683
0.2441523955430274
0.2449488683495709
0.2500874689960076
0.2614976925739554
0.2827631691518503
0.3134557704986142
0.3145400421611299
0.2664313232119242
0.1826483269910653
0.1036065822695758
0.2423979661388108
0.2566859099596843
0.2738801350564423
0.27707485897276
0.2751052398569626
0.2694777012471301
0.2619579073315242
0.2535440745910244
0.2473439877291844
0.2445042061410742
0.2453962113409876
0.2510734760206571
0.263007496124739
0.2859657066936436
0.3179097479813839
0.3147580523318121
0.2615232730346077
0.1752832381670588
0.0992293449933361
0.2417597492475937
0.2557173488375283
0.273696373054888
0.2766154724815108
0.2743968698305662
0.2689686640083062
0.2610748739801046
0.2530506295620396
0.2474880595365612
0.2447565047771338
0.2456659298451833
0.2519544970561397
0.2647618041659808
0.2897881711020266
0.3217531235364723
0.316469062463725
0.2595050365570444
0.1701124235116354
0.0970626889178956
0.2408275599492683
0.2545969727625072
0.2730141126603004
0.2764502554705742
0.2739320487405823
0.2685904748135084
0.2603999264517185
0.2524185869995842
0.2470482491037239
0.2446472058296847
0.2454547870208182
0.2522097447215549
0.2660502914626148
0.2931655041053406
0.324562469162827
0.316732509213846
0.2579228723273416
0.1664656531701363
0.0948204516252742
0.2394487180181321
0.2534149156747736
0.2719578758462548
0.2759479680704688
0.2733822992246036
0.2677202455651442
0.2599449521352182
0.2520629249396067
0.2462872471743141
0.2443780007005464
0.2454060831214656
0.2523916778407526
0.2668035824833433
0.295203250689688
0.3263650951853722
0.3171645566021934
0.2561162386166934
0.1626816806513361
0.0919016983283728
0.2382248419482149
0.2520634812297776
0.2704471099261412
0.2752367536290949
0.2727561079153089
0.2668397559150104
0.259528978886086
0.2515609164765023
0.2460520331124897
0.2443383948686295
0.2455988253624817
0.2526062382006347
0.2670212572946039
0.2970912050299894
0.3293037451145836
0.3183720783061892
0.2536378878816188
0.1598886187151507
0.0905872057218304
0.2367536242284094
0.2505295780260614
0.268874925601734
0.2745571680525043
0.2721152011233104
0.2663645502861529
0.2590980760795706
0.2507204523933581
0.2456849760208454
0.2443189314621029
0.2457572083077529
0.253014502623311
0.2679415894931967
0.2989590393801991
0.3311125841592968
0.3182993474715226
0.2517846512210148
0.1586063915364213
0.090124178750326
0.2349097790432506