/*--------------------------------*- C++ -*----------------------------------*\
| =========                 |                                                 |
| \\      /  F ield         | OpenFOAM: The Open Source CFD Toolbox           |
|  \\    /   O peration     | Version:  2112                                  |
|   \\  /    A nd           | Website:  www.openfoam.com                      |
|    \\/     M anipulation  |                                                 |
\*---------------------------------------------------------------------------*/
FoamFile
{
    version     2.0;
    format      ascii;
    arch        "LSB;label=32;scalar=64";
    class       volSymmTensorField;
    location    "0.0008";
    object      tauij_LES;
}
// * * * * * * * * * * * * * * * * * * * * * * * * * * * * * * * * * * * * * // 
 
dimensions      [0 2 -2 0 0 0 0];
 
internalField   nonuniform List<symmTensor> 
13597
(
( 0.1693845284654976 -0.0394097107933313 -0.0205439348660177 0.1393683386487954 0.027754666836748 0.238246747292964 )
( 0.1693628489882619 -0.035183511969017 -0.0171803452210649 0.1391854985622976 0.0298188309944091 0.2374921925253713 )
( 0.1670322102611274 -0.0261845651580165 -0.0112037226669804 0.1354108534568384 0.032809400622675 0.231073260514714 )
( 0.1633850833538264 -0.0140929736872488 -0.0044173382929304 0.1287815476664185 0.0367940362969564 0.2207928932067612 )
( 0.1606634175700101 -0.0051071489008553 0.000634425825674 0.1223603186338954 0.040407656617393 0.2097135292111761 )
( 0.1592045187886573 0.0005623640871898 0.0049961182152384 0.1164892204969408 0.043233924742785 0.1979839329459161 )
( 0.1574441239054949 0.0054952173148849 0.0090220411278548 0.1098510057636828 0.0455581221986452 0.1848567967618899 )
( 0.1547548727277606 0.0096177858935874 0.0130241451050126 0.102046765238257 0.0469706246851892 0.1699954641547747 )
( 0.1519893474221149 0.0130950994365517 0.0170769678064637 0.0940671021332564 0.0474045247411303 0.1559918857035556 )
( 0.1498109057477262 0.0158764258562017 0.0208252306209887 0.0860751914719977 0.0468916290170925 0.1422409593477288 )
( 0.1470429847863655 0.018305273393715 0.0250009654483853 0.0781679764505269 0.0455751115109151 0.1279754121996594 )
( 0.1443098995272422 0.020276413797595 0.0288363208524264 0.0709241984361589 0.0434873584607013 0.1161057095967224 )
( 0.1417056160950461 0.0216655005465471 0.0321722611433589 0.063768891668813 0.0402119018216409 0.1062547809101253 )
( 0.1385967776922492 0.0227209240396799 0.0357196214680377 0.0573703309886124 0.0360392973433015 0.0976636616246959 )
( 0.13604574058367 0.0232993239402451 0.0396064859928582 0.0523501602670809 0.0312980490364572 0.0911477815531866 )
( 0.1339259983597029 0.0235819937913337 0.0432255525455247 0.0482914638463764 0.0264248993717859 0.0866758349077408 )
( 0.1313926000712315 0.0238942439629191 0.0459312337557919 0.0448849487616619 0.0218925850550501 0.0835281488126706 )
( 0.1283923800471931 0.0241407129628008 0.0481290458262824 0.0420113984714813 0.0171768228829459 0.0822956855067813 )
( 0.1254127888911771 0.0242164017832803 0.0502160513987947 0.0402085903040628 0.0124734719623983 0.0829121124349112 )
( 0.186349805587514 -0.0412413001576596 -0.0076310857280787 0.1598581193630106 0.0380024703395253 0.2544320042833014 )
( 0.1875534802558502 -0.0362075188412708 -0.0022230731220552 0.1603202076975752 0.0415647618442667 0.2511007943332433 )
( 0.1845823044621806 -0.0261063327795531 0.0062802797203786 0.1553346621783605 0.0470064311269062 0.2369414572961211 )
( 0.1808328713106662 -0.0155917356153631 0.0146220292887754 0.1490034122446146 0.0537298608389219 0.2193796779230304 )
( 0.178133063324312 -0.0091638266743764 0.0200734579205151 0.1424910233391566 0.0582770098883246 0.2009827520407108 )
( 0.1752776876130215 -0.0043732750340003 0.0246306949982321 0.1350213349247512 0.0606442045619051 0.1811877038447671 )
( 0.1719129650010843 -0.000428717809141 0.0283940543454663 0.1266885024418101 0.0615473844563713 0.1609564143493378 )
( 0.1681138350271059 0.0026515489571974 0.0316647849832924 0.1180868000772448 0.0609496411483537 0.1404809181909933 )
( 0.1642076911573954 0.0056748635543576 0.0344657663109849 0.1093275441077709 0.0588111067138035 0.1219895621297942 )
( 0.1605985209476302 0.0078879505274676 0.0366419215145631 0.1004281788036641 0.0549943140433488 0.105587971920187 )
( 0.1563616895143688 0.009598932311462 0.0384679325258319 0.0918438517751933 0.0495712234332612 0.0909515628463034 )
( 0.1511401936323514 0.0109243709433991 0.039623217323994 0.0838864262966867 0.0428486759801049 0.0798185145548158 )
( 0.1467056527635045 0.0115794876528918 0.0405597130936668 0.0763765476188931 0.0352228545478576 0.0728705949409748 )
( 0.1423851640266566 0.0122096906595033 0.0415664878565432 0.0697959268029593 0.0272919534352554 0.0701575040969629 )
( 0.1378912446892249 0.0126003140522541 0.0423782296752683 0.0648251295856104 0.0196860059767794 0.071521782451784 )
( 0.1345644309561455 0.0125793977690551 0.043234610781184 0.0611658739243604 0.0127298365343798 0.0754269359239764 )
( 0.1317767016073738 0.0124309541142132 0.0441260647434347 0.0585117929665109 0.0066704161863836 0.0805173710748786 )
( 0.1287237919842936 0.0122749605923834 0.0446941563499614 0.0564025782108943 0.0009547411640449 0.0871963860123064 )
( 0.1260199047509828 0.012059564859105 0.0452799368017461 0.054897223572834 -0.0041080051724404 0.0947932644275602 )
( 0.1943518495381693 -0.0379743163115833 0.0067567391379683 0.1720070014995881 0.0454955876128057 0.2631449529094971 )
( 0.1937598253904684 -0.0325324311754336 0.0138833330132813 0.1714548157681599 0.0498766353252525 0.2547992661688503 )
( 0.1882678138021442 -0.0231038898932339 0.0229359054521307 0.164438752902757 0.0563711844229199 0.2306235628574162 )
( 0.181983075343583 -0.0151731489090594 0.0300217694730001 0.1559636471989752 0.0626502746547372 0.2022389409028119 )
( 0.1771759695375335 -0.0109784413121117 0.0334079245833665 0.1475153621575778 0.0651443700417053 0.176536833178689 )
( 0.1726727427973177 -0.0071856688098203 0.0353342353657284 0.137853453592659 0.0650301746844289 0.1513745937224881 )
( 0.167420461264582 -0.0042973877603769 0.0358475675972353 0.1276129219046458 0.062577444499584 0.1274882335596516 )
( 0.161705926396373 -0.0023442730985796 0.035381258602753 0.1184514792390199 0.0583360374400701 0.1068838292997355 )
( 0.1561727800355735 -0.0003900186875394 0.0340045910290052 0.109427188125694 0.0528373778560875 0.0909688620231387 )
( 0.1507008434979378 0.0012471609703434 0.032273486578652 0.1000010788467607 0.0453587864362323 0.0793468235121206 )
( 0.1451880584033182 0.0024557913921695 0.0303712784615599 0.0914062088754533 0.0370109223300998 0.0730592743324306 )
( 0.1401261385073246 0.0034000533491343 0.0280849380921588 0.0837057015845612 0.0283250637329992 0.072888879995745 )
( 0.135879295275427 0.0040369594592237 0.0261034407988557 0.0767895581381695 0.0196503237418844 0.0781893568510655 )
( 0.1319242392379236 0.0045292491098194 0.0249518035309847 0.0712737924823652 0.01203723033369 0.0868266511729992 )
( 0.1286698798720098 0.0048323471331706 0.0243350848600892 0.06717945909618 0.0057273204134743 0.0966982027690407 )
( 0.1262950266192395 0.0048693910936333 0.024096511095587 0.0642072279533984 0.000653729100897 0.106365942917837 )
( 0.1244002059214176 0.0048450796748229 0.0240211412404348 0.0620035929942325 -0.0033852976701236 0.1149239789675766 )
( 0.1223967407248768 0.0048490478330001 0.0239654974546289 0.0600622515806878 -0.0070123952173257 0.1227588917366975 )
( 0.1208971582262688 0.0047804312528937 0.0245350139601575 0.0584748116471173 -0.0103651201870782 0.1295530103341008 )
( 0.1909767711100996 -0.0309573148132296 0.0214195218163334 0.1761434998372522 0.0501490745462313 0.2638587915665764 )
( 0.1863180328011195 -0.0253960133807393 0.0286331326231677 0.1729735834882654 0.0552218402316175 0.248342082154933 )
( 0.178315015700437 -0.0181609726154407 0.0343296136153708 0.1634106003272445 0.0610745417103809 0.2138946365638171 )
( 0.1695769448346908 -0.0124904426392997 0.0366178966842352 0.1519460100103282 0.0642940372843654 0.175906240227726 )
( 0.161550012769714 -0.0093503857847889 0.0358845028887396 0.1413485894833524 0.0633825573861634 0.1454636596492614 )
( 0.1542307380996496 -0.0066484615995545 0.0334242086798057 0.1309097545435687 0.0599461613721982 0.119649941337976 )
( 0.1471648441491161 -0.0046801141836928 0.0293732955686741 0.1204095650603788 0.0543990470612724 0.0981149678146438 )
( 0.1406767181149462 -0.0031555000883675 0.0249534429258441 0.111202748057826 0.0473756872727633 0.0832334005475413 )
( 0.1347676110586619 -0.0015146849515187 0.0207334439333662 0.1025073478906157 0.0397816680472097 0.0755178225497381 )
( 0.1290941551388515 0.0002900273673206 0.0165874524071109 0.0941018053401275 0.0316473710531961 0.0739894175407832 )
( 0.123757002251986 0.001950311730589 0.0128870494653657 0.0861737048008158 0.0233857214131095 0.0781120202328948 )
( 0.1193607931955564 0.0031327464220564 0.010063489837768 0.079059405424153 0.0158814420880578 0.0868258347805039 )
( 0.1155902708309122 0.0042773552408016 0.0084154006643888 0.0727956750470738 0.0090505399115219 0.0976224771168895 )
( 0.1126785189358648 0.0053136027999551 0.0074498685924642 0.0676466945039541 0.0033565374867754 0.1086061597026191 )
( 0.1109001403906578 0.0060981497265224 0.0066979522760321 0.0638200647557413 -0.0009540508815202 0.1174574204441187 )
( 0.1094800423929407 0.0069759879677216 0.0062549997377517 0.060987291178267 -0.0043152494000506 0.1238930306052724 )
( 0.108101644741979 0.0077475388296509 0.0057165326781842 0.0587247089676933 -0.0069777829952807 0.1282075250070312 )
( 0.1070995063477725 0.0085806395986298 0.0051360725419411 0.056788589844436 -0.0094520196051231 0.1309904308802064 )
( 0.1066996445292391 0.0093997353797837 0.0048900906328388 0.0550701993724017 -0.0118973315682524 0.1327704825651992 )
( 0.1781118903991684 -0.0219802039321339 0.0336185734135425 0.1742165516888031 0.0537360216136322 0.2577629219252946 )
( 0.1692348202168523 -0.0163575366176267 0.0381699513807268 0.1666785451143873 0.0577425741899829 0.2331228180826141 )
( 0.1591884987279942 -0.0118309231286735 0.0383623531565989 0.1545045338059497 0.0612585482619946 0.1896735898592578 )
( 0.1488286283366677 -0.0082013384714698 0.0349081694348621 0.1418387977806356 0.0604624139591711 0.1476919717188551 )
( 0.1393988498870009 -0.0057526707702131 0.0298747263057525 0.1307316974491628 0.0564782426296702 0.1177888106715841 )
( 0.1316775673488061 -0.0039173837278607 0.0242576363339869 0.1210602195054469 0.0507375864591334 0.0962432738154491 )
( 0.1247827346690521 -0.0022249521202057 0.0177513132321614 0.1115941888372208 0.0432358382600547 0.0817364217444699 )
( 0.1183096312746847 -0.000533114790426 0.0118396343824533 0.1032457640245787 0.0350914248372894 0.0754947683458203 )
( 0.112900859670226 0.0015205176751455 0.00731740528817 0.0957989273873021 0.027235269819233 0.0763066338208743 )
( 0.1084728419885384 0.0035196674694578 0.0030281054259496 0.0886450460030575 0.0198377779510197 0.0818300368467264 )
( 0.1045842194068501 0.0056254309843695 -0.0006025765492161 0.0815761037009297 0.0127011617317819 0.0912043589690273 )
( 0.1009962497997738 0.0075785434578929 -0.0031822509934974 0.0752251125936223 0.0064148528860665 0.1019887323754472 )
( 0.098220194682994 0.009524778662895 -0.0049250322223519 0.0697523704981815 0.000949300356843 0.1115359138545559 )
( 0.0967677614163294 0.0117507669945868 -0.0066790737917779 0.0652747177623187 -0.0035632965884034 0.1193026019680571 )
( 0.09597218611973 0.0137355570274905 -0.0086082269117048 0.062155545065296 -0.0069720675746645 0.1238217750281786 )
( 0.0956318564197898 0.0157097068680882 -0.0102420917483569 0.0598826082951073 -0.0097989466859209 0.1262713766121935 )
( 0.0955917166146391 0.017657432610744 -0.0117405005795931 0.0580672524471142 -0.0121929906506731 0.1267301542146834 )
( 0.0962279908793812 0.0197374023428766 -0.0133123582535506 0.0566626617438901 -0.0144088671233959 0.1257559241494273 )
( 0.0976200074717696 0.0218934309944957 -0.0146957581000604 0.0552928262955951 -0.0165169538502247 0.1237319688186867 )
( 0.1589118936636595 -0.0117186362713044 0.0413401319278717 0.1661883459330927 0.0548081425598052 0.2460121870289388 )
( 0.1473259374757672 -0.0071823684753541 0.0414305585820541 0.1553793250601432 0.0571160397905641 0.2121152267352797 )
( 0.1359870325661195 -0.0050404175478222 0.0361893001732028 0.1415758899384654 0.0579135127547691 0.1621512179131737 )
( 0.1266427211865257 -0.0032383565173421 0.0287555306768797 0.129668152781383 0.0540083135205201 0.1223779043268315 )
( 0.1188360378665944 -0.0015790451980971 0.0215487364307524 0.1197137139510865 0.0476825183200172 0.0981757994448632 )
( 0.1122888644684619 -0.0002715226971608 0.0148955633493444 0.1115599320465543 0.040394833400612 0.0841301359748426 )
( 0.1068965691677596 0.0016319325495731 0.0084078117184329 0.1043226341095424 0.0323252522198003 0.0783055822072701 )
( 0.101496549005727 0.0035244978327075 0.0026707933733932 0.0978555176306599 0.0241075879249538 0.0797246949612526 )
( 0.0961583142575877 0.005814515661444 -0.0017761168000228 0.0919186962474196 0.0161809778097547 0.086274593156921 )
( 0.0925049179703283 0.0086065966672445 -0.0063959992826621 0.0859169527868151 0.0088235916608602 0.0955065421136967 )
( 0.0906384683474833 0.0115531177364479 -0.010680861029194 0.0803046721917236 0.0024661803761195 0.1055215900144288 )
( 0.0889970830267773 0.0147587552931535 -0.0139797575385376 0.0753132189117495 -0.0029947729097377 0.113916590040146 )
( 0.0881782829598879 0.0179903892123592 -0.0169720319534758 0.070901141528244 -0.0078661502822515 0.1199820959938891 )
( 0.088738961520139 0.0214025183290266 -0.0200505005030111 0.067607891174331 -0.0118182732519498 0.1233458971668487 )
( 0.0897564445709037 0.0246630802595392 -0.0229217535027151 0.0654907713485444 -0.0150258576410677 0.1241395059777302 )
( 0.0911287789583087 0.0275222348741171 -0.0252194198599995 0.0639434022543319 -0.0175620512291092 0.1232594361640178 )
( 0.093110935138247 0.0303804647087573 -0.0272707738839094 0.0627938670612551 -0.0196747164832971 0.1209585776932023 )
( 0.0953497315686733 0.0331672439573509 -0.029084137898402 0.0618002190700446 -0.0214794843706765 0.1176129386608398 )
( 0.0979705260862707 0.0358331720028342 -0.0304874367804693 0.0605891238956404 -0.0229038706421019 0.1132153301953734 )
( 0.1371048857958997 -0.0016364496475779 0.0441559925250868 0.1536755615040791 0.0532138015936005 0.226923474954482 )
( 0.1256416311529379 0.0010932499001947 0.0401391944983365 0.1414374164393184 0.0537763283062272 0.1866612663327275 )
( 0.1161635565724337 0.0011803336531815 0.0312779247278595 0.1286207913735837 0.0521859235629355 0.1372657216801445 )
( 0.1088626513800583 0.0019823114006941 0.022186613339079 0.1186863844539965 0.0467074600829759 0.1045164753969537 )
( 0.1033213593259699 0.003189236906391 0.0150405027313624 0.1109178298651075 0.0390886089708018 0.08874616521205 )
( 0.0978135215554181 0.0043320866278058 0.0086548154989812 0.1047444922042754 0.0303137332434432 0.0829814354356096 )
( 0.0926021536567205 0.0062129488895166 0.0028099927955884 0.0995373649687385 0.0215797437899144 0.0847072537314755 )
( 0.0883125701524275 0.0082723508264728 -0.0031728341326552 0.0952550544408059 0.0131970197884297 0.0913624708714423 )
( 0.0844741300422611 0.0110849605494368 -0.0085960677990682 0.0912562797195875 0.0050924846720368 0.1010127076344823 )
( 0.0826985354315267 0.0145975956071981 -0.0139662438466651 0.0870140065103628 -0.0019130714150247 0.1105040662899355 )
( 0.0825961229215705 0.0184353305059575 -0.0191510876630528 0.0828425920896461 -0.0078052087012571 0.1178921431414175 )
( 0.0834885280652999 0.0228247939653623 -0.0235501562555766 0.0790790701264616 -0.0129844966943461 0.1227334178638087 )
( 0.0857893580411312 0.0272201932569456 -0.027632832496286 0.0760935482210057 -0.0172525514674127 0.1247384517902853 )
( 0.088691295966688 0.0314151719619298 -0.0312428844474082 0.0738867107151423 -0.0207065088824919 0.1244362088287117 )
( 0.0914870817495712 0.0351987098969729 -0.0342596455087883 0.0723536501250704 -0.0234794363129706 0.1223907646582455 )
( 0.0941916891363222 0.0383316163652309 -0.0365388070624896 0.0713893138688872 -0.0255316634151405 0.119219861090104 )
( 0.0966830573739954 0.0411580472810578 -0.0383434340350289 0.0703621614310411 -0.0270589926440755 0.1153374783460225 )
( 0.0990203834069664 0.0437884204377301 -0.0398828473910602 0.0691874649728725 -0.0282032215640569 0.1107011915008119 )
( 0.1011419479621754 0.0460536621783438 -0.0409839453627564 0.0676099921692264 -0.0288674212630895 0.1054332204228365 )
( 0.1183748384647698 0.0070738048913074 0.0434940084669625 0.1398437330666995 0.0503190713425222 0.2050683073554879 )
( 0.1081581711129404 0.0086099999313367 0.0368774466110614 0.1273844895761429 0.0492122062278707 0.1628906379530822 )
( 0.1011642060101292 0.0070395502793616 0.026678987486548 0.1170645089873844 0.0456881778376255 0.1197237307219288 )
( 0.0958209162740733 0.0066299863093931 0.0176981660574854 0.1097534461511898 0.0388596908365187 0.0965466404849599 )
( 0.0912652583335419 0.0076813704444789 0.0111126909437535 0.1042107366295901 0.0300620951598627 0.0891346787965316 )
( 0.0875077732705283 0.0087194656294478 0.0047943594561113 0.1006930694289854 0.0203307249010328 0.0906585635919082 )
( 0.0832502539631595 0.0105382714292533 -0.0012889196737785 0.0977582400882588 0.0104864406291854 0.0981462332696136 )
( 0.0798885943983332 0.0128784716379922 -0.0078715045541334 0.0955980066177308 0.0019036653726242 0.1075497105083859 )
( 0.0785485052761499 0.0162756466628531 -0.0144951984573688 0.0937073315861385 -0.005876297297578 0.1170619348197109 )
( 0.0790375446587179 0.0206416093809038 -0.0206574323003043 0.0908438667194513 -0.0125806431154775 0.124309139656433 )
( 0.0808999867482346 0.0253896071321949 -0.0264640778371056 0.0879683888772619 -0.0180765816755038 0.1280915329750013 )
( 0.0842825867991246 0.0304838340570618 -0.031549954012065 0.085346180967259 -0.0228512409313694 0.1294577306563729 )
( 0.0886932089152698 0.0353022309504634 -0.0358970258255939 0.0831804869436188 -0.0262369968430016 0.1278660160329705 )
( 0.0928584741241315 0.0395067628289766 -0.0394062997896155 0.0817318823722116 -0.0287373220949851 0.1244915353947784 )
( 0.0959621427387531 0.0429624964600624 -0.0418753864779035 0.0804770843212381 -0.0306223838658448 0.1204812629115103 )
( 0.0987081616309429 0.0457918049651904 -0.0438061153219403 0.0794631530452856 -0.032075861779476 0.1161938652183125 )
( 0.100656726284234 0.0481524142238981 -0.0453849060053676 0.0780783756835358 -0.0330471091410279 0.1117602124165766 )
( 0.1020090040503978 0.0501872000319829 -0.0467556578435019 0.0763139197235619 -0.0335423745262192 0.1070078397427179 )
( 0.1028195996697493 0.0516742844249837 -0.0477029763365036 0.0739124668072677 -0.0335966022593802 0.1022690782380022 )
( 0.1033198069213412 0.0148781440617511 0.0413963809250969 0.1255473200732565 0.046348219150725 0.183349423741518 )
( 0.0946455964777713 0.0153112169606482 0.0338637187237137 0.1138784663012433 0.0442507033372451 0.1434313067369814 )
( 0.089870765818266 0.0122641433179767 0.0239493027202768 0.1064771426882339 0.039256935542814 0.1096925246141945 )
( 0.0863556296411207 0.0108030345536454 0.015892585965677 0.1023224849764304 0.0308853199897664 0.097122381366809 )
( 0.0828115224146461 0.0111517277741444 0.0089881355120993 0.0996993060585519 0.0207504725110047 0.0976576764696134 )
( 0.0800448053441049 0.0120098311959416 0.0022534715153932 0.099132439178794 0.0102694394363412 0.1045732554492891 )
( 0.0779111462184172 0.0139293367001996 -0.0047494701469814 0.0987239071713135 0.0001424469562224 0.1143847271909602 )
( 0.0767745861556705 0.0168550286159508 -0.0121146804666242 0.0984027507762143 -0.0086253662802223 0.1242263320443168 )
( 0.0775488134908565 0.0208894804471058 -0.0193965286659436 0.0982483989684799 -0.0159785164443227 0.1314742841023088 )
( 0.0804390665204351 0.0257981076877427 -0.0264625437013221 0.0968788318028261 -0.0222853696054808 0.1357523854561734 )
( 0.0845112555020121 0.0312130029863381 -0.0324435407125055 0.0950455026451799 -0.0271520352699077 0.1360774218768879 )
( 0.0890000969370346 0.0365131755082674 -0.0373974733856022 0.0929703699865893 -0.0309144100890083 0.133868507631552 )
( 0.0936110183469644 0.0411668113483475 -0.0415431079100223 0.0907231025443229 -0.0335961750964056 0.1298761583352468 )
( 0.0974290032221344 0.0449553754833428 -0.0447722400964224 0.089318352201197 -0.0352490108220391 0.1246977800187081 )
( 0.0998380742700982 0.0478087251429582 -0.0468177068587341 0.087940923288482 -0.0362028801761837 0.1197861880466453 )
( 0.1016233328874048 0.0500990227424276 -0.048462461803748 0.0863866728537054 -0.0370689185211523 0.1153840534404366 )
( 0.1024317162262509 0.0518491581971249 -0.0500501016728978 0.0845593305254945 -0.0375423751823516 0.1111984989009809 )
( 0.1025196591453794 0.0531326816873322 -0.0513476098935391 0.0820445083872833 -0.0375327946552306 0.1072379696895094 )
( 0.1017949427437679 0.0539696869404238 -0.0522076093201149 0.0787745456480906 -0.0371243797008716 0.1037320444583799 )
( 0.0922601621745651 0.0215543269371652 0.0391285789582575 0.1121180278871331 0.0421077048950539 0.1628429056562489 )
( 0.0860339052600136 0.0202232619047873 0.0317332705504544 0.1018531779610256 0.0391371797814815 0.1285768009905502 )
( 0.0828656735401802 0.0160502172436964 0.0225492627951894 0.0975918311422264 0.0328056048993446 0.1065695447959746 )
( 0.0806888157816252 0.0141164872940242 0.0151231127647461 0.0970160135542109 0.0229999012109672 0.1042286414106403 )
( 0.078210996276008 0.0138515398149306 0.0078575614089122 0.0979567243302028 0.0117957502007944 0.1110032747911455 )
( 0.076149364610131 0.0147037382689117 9.928186917721498e-05 0.0999250766784099 0.0006577085030448 0.1210456489425091 )
( 0.0759447517461365 0.0168365068625206 -0.0078195033587578 0.101820007813251 -0.0096978685829334 0.1314408391489273 )
( 0.0773616167516384 0.0202701208170652 -0.0158781923264254 0.1031923601983159 -0.0187709113918899 0.1400421256054326 )
( 0.0797851642507456 0.0247197811944885 -0.0233604956700865 0.1041881725590471 -0.0257916172065165 0.1445675837766834 )
( 0.0841913340597079 0.029851306192639 -0.0300149312911074 0.1038910586252883 -0.0311053245344011 0.1452787233390203 )
( 0.089306304206574 0.0353561914706678 -0.0360754721293194 0.1023279198226789 -0.0346690769946556 0.1419439048333534 )
( 0.0937090818991441 0.0404316094836501 -0.0411697506631341 0.0999996292095438 -0.037064626922936 0.1367438051067649 )
( 0.0975410472600825 0.0446500758730507 -0.0450441781692967 0.0976347967401762 -0.0389199973360816 0.1312917475120524 )
( 0.1001529725140343 0.0479197689658686 -0.0479549729680608 0.0958784457100038 -0.0399073835823022 0.1255745450877742 )
( 0.1016286358401441 0.0502541326024432 -0.0501121074832707 0.0940804077404126 -0.0404463708357362 0.1207260565804825 )
( 0.1021614574921769 0.0520085306351961 -0.051853990338053 0.0921641801645731 -0.0408653475811868 0.116750883352009 )
( 0.1017420800160929 0.0533153958201862 -0.0533533244161442 0.0899226266142432 -0.04086370554324 0.1133450934619572 )
( 0.1007272551262106 0.0542346065722248 -0.0545038922510536 0.0868205487558686 -0.040494832761102 0.1105126036875838 )
( 0.0992010587519361 0.0550116427783456 -0.0552939230736421 0.0829036077673979 -0.0398411774139776 0.1082715259770633 )
( 0.0855186211999794 0.0265202764072293 0.0377790779103343 0.1002729622412253 0.0381235072073693 0.1464983704606672 )
( 0.081763618565336 0.0235960047142961 0.0310578146791079 0.0925522158621373 0.0341874928723662 0.1206833959276203 )
( 0.0793581375920941 0.0184553762085262 0.0222799672667986 0.0915078090068683 0.0261934189335086 0.1104713126282678 )
( 0.0770603523881253 0.0161494924795471 0.0147690228468448 0.0939939334146207 0.0152339640604014 0.1162153778692366 )
( 0.0749507233334677 0.0158584918874939 0.0071394371865789 0.0976083524261469 0.0029733370613057 0.1269560295637117 )
( 0.0745339741513749 0.0167633555088083 -0.0014303811888009 0.1017650279464524 -0.008689912550646 0.1388255695120752 )
( 0.0765917827121521 0.0190154425451761 -0.0098323747751889 0.1057288335698186 -0.0192196530909613 0.1488910111039693 )
( 0.0796336337498242 0.0225915419684791 -0.0180011596695284 0.1087220991463532 -0.0279104691500816 0.1547476471384263 )
( 0.0829997732618954 0.0274345378519567 -0.0255002284146851 0.1104150207982246 -0.0338790730412663 0.1555339652045916 )
( 0.0880040187073457 0.0328745558822626 -0.0318959561027038 0.1105619311802869 -0.0380110295652456 0.152884606745996 )
( 0.0929810247213545 0.0381963141853841 -0.0382174346650766 0.1091467680731525 -0.0404229153209022 0.1464927185081015 )
( 0.0970263534055662 0.0429920307214483 -0.0437510316659359 0.106547453318354 -0.0419325822953767 0.1390931990436412 )
( 0.0998895510514526 0.0466993232152646 -0.0475742599070614 0.103949854093444 -0.0429804727646886 0.1328598729029142 )
( 0.1011456954601368 0.0494007710203207 -0.0503659854477273 0.1016417027674575 -0.0433255490662796 0.1271044665698759 )
( 0.1014316906483912 0.0513253825857621 -0.0526106208291432 0.0994606042747258 -0.043567140122323 0.1227426720842468 )
( 0.1008783703557902 0.0528688360941335 -0.0543271836729173 0.0973347034104899 -0.0436066032079768 0.1194846897659007 )
( 0.0997534877711656 0.0541552076603175 -0.0557162444277173 0.0947015388295561 -0.043371249380387 0.1171136422517054 )
( 0.0982501518527637 0.0552711123854283 -0.056749057843804 0.0913059521897179 -0.0428786530372626 0.1152917755449998 )
( 0.0965366943886257 0.0564760978140329 -0.0575311977186568 0.0871762510773516 -0.0421681700396645 0.1140005807305141 )
( 0.0821708232082146 0.030067476333934 0.0371435393186327 0.0893811821819061 0.0345816228117604 0.1350045620183154 )
( 0.0797154658368729 0.0257667507718015 0.030851424308205 0.0848070422607086 0.029485157965291 0.1186539611623221 )
( 0.0774396932467802 0.0198094968852586 0.0223440851091901 0.0878169196953164 0.0195254345422294 0.1193284459453621 )
( 0.0753096562276552 0.0173761444860114 0.0148469869759823 0.0927417099342076 0.0075190482912158 0.1312091666100843 )
( 0.0743509585744522 0.0169350065914096 0.0067447599962461 0.0985612235312921 -0.0055238396110963 0.1443778492629697 )
( 0.0755096640717804 0.0180553598626692 -0.0020039359439394 0.1043620620994191 -0.0175528759521867 0.1566462664605701 )
( 0.0785801272765618 0.0204922000789826 -0.0108344283121837 0.1097221070734866 -0.0275025170367934 0.1640889765465893 )
( 0.0820162876448959 0.0243988966776922 -0.0193324122660822 0.1140810559713579 -0.0351302084162356 0.1664129629199449 )
( 0.0863047891700255 0.0296059723960653 -0.0267285236712882 0.1162013300893321 -0.0399797094363473 0.1636041789217437 )
( 0.0914399526178329 0.0350868982478529 -0.0337794840783546 0.1165754865888712 -0.0430982064228535 0.1577703778142006 )
( 0.0956545759028666 0.0402090558796287 -0.0403432743579477 0.1152978903842438 -0.0446196778273461 0.1495606582809149 )
( 0.0988507021375241 0.0445346587727107 -0.0457485702116541 0.1126100646880884 -0.0456059772018912 0.1415912311207914 )
( 0.1005146649192703 0.047821118983541 -0.0496182804090352 0.1096152324181976 -0.0460783635408633 0.134854893787545 )
( 0.1006398814368604 0.0503134136053304 -0.0523585184146307 0.1067950271149391 -0.04596708851202 0.1291653047952673 )
( 0.0999097967369634 0.0521169373389557 -0.0545212334489316 0.1044042491658356 -0.0458582533760508 0.1254766097082407 )
( 0.0986998095095821 0.0536747589906796 -0.0560408867895728 0.1022555176227296 -0.0456560127788819 0.1231014597122885 )
( 0.0972830317134007 0.0552539876493918 -0.0573159831941099 0.0995207306500603 -0.0453685050708179 0.1215612704792072 )
( 0.0956095729363876 0.0569332367810144 -0.0582656172787171 0.0959949150375061 -0.044948894793254 0.1203062812656203 )
( 0.0939738833042778 0.0587813665632563 -0.059103292796633 0.0917390453033855 -0.044390649881568 0.1198666688861633 )
( 0.0811543330561112 0.0322254136537413 0.0375214625940032 0.0799334289466413 0.0314620381902349 0.1297188967011091 )
( 0.0785348460589432 0.0267208591222111 0.0315118117923269 0.0783261648819822 0.0254562222046183 0.1229869058348405 )
( 0.0761525039270289 0.0205161346513759 0.0227598270765447 0.0851159421979986 0.0135363714222457 0.1318572280867063 )
( 0.0751302106309491 0.0179661286240522 0.0150899822041775 0.0925614686591432 0.0004284704975626 0.1470207383258683 )
( 0.0755800207724132 0.0174329704530354 0.0065021558564072 0.1006289432128567 -0.0132436106148708 0.16106724643711 )
( 0.0778726040185368 0.0187657536257902 -0.0023998031440843 0.1078954179067264 -0.0254803607651959 0.1718993945160055 )
( 0.0810975219683251 0.0217515943668886 -0.0113354942700174 0.1141690987112694 -0.0346987357141152 0.1767997972466349 )
( 0.0847624043045325 0.0260636794531703 -0.0201880848506554 0.1194827783111122 -0.0410184529591032 0.1759247300792159 )
( 0.0896670221653688 0.0310143702757269 -0.0278856866873387 0.1222814152470364 -0.04509617771071 0.1704398993820171 )
( 0.094263857583805 0.0361405208903978 -0.0349401727741029 0.1220487021175001 -0.0471682710865512 0.1619442653884374 )
( 0.0974321660627711 0.0412249881556118 -0.0419009139138465 0.1202251477986823 -0.0478662264245174 0.152131053164611 )
( 0.099291858979234 0.0452721578880693 -0.047222669686694 0.1175448641101099 -0.0482955645818953 0.1438254005827131 )
( 0.0997123014655836 0.0484013286631974 -0.0509624047383692 0.1144708854113574 -0.0481802580399645 0.137034794867356 )
( 0.0989738412768047 0.050888936658925 -0.0537134385506059 0.1117205303147311 -0.0478601371805743 0.131903035771365 )
( 0.0977904083338631 0.0528521715175511 -0.0555831669412892 0.1094832759173092 -0.0477635067870076 0.1290089516715138 )
( 0.0961841478565863 0.0547055780386736 -0.0569704496252964 0.1073293093079483 -0.0475855035976716 0.1271328269088456 )
( 0.0945207329060838 0.0568355286954155 -0.0582420833770983 0.1048582748824816 -0.0474200494751569 0.1260688710107138 )