/*--------------------------------*- C++ -*----------------------------------*\
| =========                 |                                                 |
| \\      /  F ield         | OpenFOAM: The Open Source CFD Toolbox           |
|  \\    /   O peration     | Version:  2112                                  |
|   \\  /    A nd           | Website:  www.openfoam.com                      |
|    \\/     M anipulation  |                                                 |
\*---------------------------------------------------------------------------*/
FoamFile
{
    version     2.0;
    format      ascii;
    arch        "LSB;label=32;scalar=64";
    class       volScalarField;
    location    "0.0075";
    object      k_LES;
}
// * * * * * * * * * * * * * * * * * * * * * * * * * * * * * * * * * * * * * // 
 
dimensions      [0 2 -2 0 0 0 0];
 
internalField   nonuniform List<scalar> 
13597
(
0.2013743991171472
0.197647845081781
0.194253463005955
0.1958799738739503
0.2024670474032561
0.2111061326179086
0.2204150975196327
0.231390359113857
0.2432284050672456
0.2542931761979494
0.2660131513679102
0.2773245325205453
0.2871875045135572
0.2961888634887044
0.3041512954897347
0.3116884976432112
0.3183621820967106
0.3229369511777261
0.3272831912557031
0.1985534138864446
0.1988153335490408
0.2031807230217932
0.2158872675577839
0.2295291144631698
0.2432442899294971
0.2567970996538492
0.2706234834838269
0.2836369573952879
0.2945759596054805
0.3045718378792623
0.3133260936024821
0.3205004154635368
0.3270357217849877
0.3326273412364313
0.3373301655409748
0.3409500189156285
0.3442364225350299
0.3481065958643374
0.202461222929466
0.2068931676495817
0.2182252340026838
0.2359385232626984
0.2501289261476959
0.2635713068372806
0.2751865372011082
0.2854605467996078
0.2947781643999345
0.3032007253304219
0.3108960369570068
0.3185120021604569
0.3261827524650381
0.3332728901881225
0.3395682335267962
0.3452574518882701
0.3499639459384981
0.354169568460167
0.3582906705822682
0.2091321698254467
0.2159012296751041
0.228245266555584
0.2437605318466261
0.2550564751648391
0.2649718057073252
0.2740982455308517
0.2832646833888155
0.2924994622552428
0.3017756119640944
0.3109608546778257
0.3203868974057244
0.3290048767787357
0.3373879592970252
0.3443359062678487
0.3491744668115379
0.3525747353370662
0.3555728221373367
0.3582650229299904
0.2140854544543846
0.219371377854025
0.229573043768186
0.242665500703314
0.2521501936864362
0.2615858951661952
0.2720082304426449
0.2836156939247899
0.2950622779380305
0.3065956022624505
0.3183478198220816
0.3286803442015633
0.3370645672825489
0.3439247167560391
0.3482714440887459
0.3509178803431471
0.352383108686741
0.3533895126512907
0.354149397353013
0.2145536684185964
0.2171129822264851
0.2259126779196858
0.2392171058910154
0.2503875837169012
0.263184442278685
0.2773548532503478
0.2922640116181929
0.3064311155353786
0.3193431631436745
0.3301001188935903
0.3380456961657886
0.3436013797761958
0.3466610749759869
0.3483499361590518
0.3495686895393932
0.3509063202297074
0.352353263680544
0.3543929422958003
0.2113261614596753
0.2132374871123819
0.2236227171706908
0.2393768226570111
0.2547244975008513
0.2721769749978163
0.2899071101834474
0.3059133047503461
0.3193423797402959
0.3298083583183774
0.3372635429179275
0.342464069376114
0.3461615226278771
0.3489429235469015
0.351695540012894
0.3548719435314343
0.3587776966654877
0.3638496602687634
0.3701304981086789
0.2073171044380223
0.210238886351895
0.2245018276594303
0.2447967078553949
0.2647592310416918
0.2851385019780754
0.3033013514590448
0.3179797228665829
0.329088419019799
0.3362872790850499
0.341665756156342
0.3468482345434431
0.3521283855619986
0.3579317304206598
0.3640583384389195
0.3713993077095081
0.3798501966090012
0.3897369824047437
0.4005709160680202
0.2036833509541088
0.2095486897157466
0.2290322748278595
0.253628010920445
0.2767104451323847
0.2973311487732124
0.3134989084429215
0.3262320671096213
0.3355577960840334
0.3419399748440123
0.3480891272974169
0.3557761110108838
0.3648141917941003
0.3753045117009737
0.3860944938075129
0.3983050448990848
0.4115630794087465
0.4259691054460364
0.4412603342497116
0.2030482705410981
0.2132125424207266
0.2371584503773292
0.2640621041537712
0.2878571094522706
0.3069112958778101
0.3210813435771032
0.3325712582064483
0.3412575367280126
0.3490337989933756
0.3584791911847642
0.3701969904630265
0.383828609237017
0.3990242559522248
0.4150843407078672
0.4324029726525432
0.4505666565992162
0.4694293244548351
0.4890258497700476
0.2052688239776323
0.218618891779643
0.2462830205576478
0.2733392147593842
0.2960113715903169
0.3135816956777659
0.3269743795550499
0.3384262344703048
0.348207163086786
0.3588870585423782
0.3723646542422482
0.3892060464746489
0.4076274692341075
0.4273942999320382
0.4490286284249308
0.4717123048460771
0.4952152179902119
0.5188352977545505
0.5435400535759402
0.2080362513569404
0.2239113898193147
0.2543999679630098
0.2806983036016855
0.3021692110601209
0.3189719695544903
0.3322934595939819
0.3445038719525777
0.356462536314631
0.3709256387913185
0.3890619051350935
0.4113243242128351
0.4353545542769569
0.4605802527421847
0.4878775966468793
0.5156557730144188
0.544040829255882
0.5738570974571753
0.6054519643421851
0.2107962063899951
0.2293965800753636
0.260568069295787
0.2862742366186254
0.3072203511243187
0.3238198467794704
0.3375410141873443
0.3512726704983073
0.3666639775435724
0.3848932809968005
0.4085697304307883
0.4363342166292856
0.4661806802777454
0.4980052458010445
0.5303244352853271
0.563152989733243
0.5985983158607939
0.636536201746716
0.6745508859970083
0.2137512775995609
0.2334916357719482
0.265016789883658
0.2900898658814903
0.310820800498735
0.3278337414687195
0.3428207350676227
0.3583446204869654
0.3774478905930114
0.4008733205512241
0.4298178759905149
0.463705012693946
0.4996566013123459
0.5370080745677388
0.5753522584935826
0.6160937153501312
0.6605125737108771
0.7060562757079263
0.7531661802691518
0.2156507244718515
0.2361852805646135
0.2695230101207751
0.2935990460256033
0.3140292805280779
0.33138749508562
0.3479726636890522
0.3668368776381958
0.3896775061499341
0.4182127596113634
0.4531043597570242
0.4934004297435588
0.5362881251581687
0.5792910739659861
0.6249027244996885
0.6748608221939236
0.7279456237145745
0.7838838079654811
0.8539556370259747
0.2164228982081146
0.2376595106862635
0.2718305535647075
0.2957578971479775
0.3160420431353002
0.3342868199818272
0.3534463321907932
0.3759231707831273
0.4032934647282776
0.4369740745486016
0.4787608561408716
0.5262764055982001
0.5752676488442526
0.6248083501453178
0.6783712558785937
0.7367699742200481
0.8008446033706954
0.8797683832788367
0.9904312835290856
0.2164079775301512
0.2383983896012739
0.2731750235918348
0.2970198435511296
0.317710498969513
0.3380643794332158
0.3599669864355969
0.3850930940026558
0.4171232316490538
0.4568496027722529
0.5034088918409719
0.5577915814085945
0.6142968411934829
0.671788873996891
0.7342948423696933
0.8037395603445463
0.8871271118295333
1.0036140343599895
1.1500490765241569
0.2156107071105207
0.2386383587462112
0.2741097346727787
0.2979827393636817
0.3195280194562356
0.3420000145687348
0.3659129747615341
0.3946678797081288
0.4318159070925276
0.4764964414938941
0.5292004750984183
0.5908052319923779
0.6548948506025006
0.7213873940517119
0.7939231432116453
0.8776401265032577
0.992756677681394
1.150779994475514
1.2870279982262067
0.2145411683619047
0.2384266381437984
0.2743151336129726
0.2988177489444706
0.3214285986178957
0.3458051070934256
0.3716414132604925
0.4040721921300708
0.4461903593846049
0.4967097780398901
0.5579878526406726
0.6257044360370223
0.6973450543913892
0.773966173757673
0.8573378566274341
0.964642653934529
1.1209717246790047
1.311239927147537
1.3887605232094016
0.2130386166606148
0.2375142149034596
0.27406595509652
0.2994946576910482
0.3234655635106717
0.3498786474815051
0.3786244926949551
0.413898100530326
0.4599936545667129
0.5171840184221993
0.5868592046610784
0.6618368477967798
0.7412144469911568
0.8265139795411207
0.9295352728559194
1.0681550931993784
1.2658420305683398
1.465238025895972
1.4539173555334712
0.2104129785334289
0.2358691044094906
0.2727451576321177
0.2991022407000233
0.3247738319769365
0.3534307899355522
0.3854578549875045
0.4233287704192401
0.4744237431639477
0.5379588266801414
0.6151698749010556
0.7002736548677454
0.7863757322980521
0.8793764429968005
1.0059930011288103
1.1860856678902243
1.4207857358475942
1.5997148823566922
1.447814354015512
0.2080306366951405
0.2343989113468796
0.2719671879604075
0.298875058806765
0.3263246512273901
0.357782457874055
0.3925638054833342
0.4331918471864902
0.4902832133784418
0.5600874166749287
0.6423163391412933
0.7334691979563175
0.8273513561614251
0.937567824368799
1.0884988994150369
1.3133552941555144
1.5721474913006026
1.7043998566203775
1.346228555038563
0.2065438435958818
0.2338489357282768
0.271503675461414
0.2989757956299435
0.3281134293332225
0.36145745446463
0.3989648436632331
0.4440369231119502
0.5068063317929945
0.5837561886253564
0.6710776383240626
0.7658214185251047
0.8681935216348988
0.997829594741333
1.185676860696241
1.4508540360348716
1.7150970858328154
1.734868980416747
1.2324668517970585
0.2050046075603257
0.233263177718468
0.2713460283943311
0.2991352847787615
0.3296078453655394
0.3643747922040006
0.4039811883575394
0.4537394356616665
0.5209713953597451
0.602814380609758
0.6967990511596434
0.8011656993979765
0.9150130852043424
1.0636597420715752
1.2891530661651984
1.5880550670147984
1.8443873631967127
1.7146952678217424
1.12969793167801
0.2037005822164356
0.2318464548678026
0.2709116300093244
0.2995426458452882
0.3310571065429576
0.3676482953914649
0.4094706028993173
0.46278919979099
0.5329231671855598
0.6189993103355421
0.7210655618411218
0.8355551599706915
0.9620060521055857
1.140837006007091
1.3969032570740751
1.7145079751530368
1.9376009651288597
1.6818949584502068
1.0149049471152356
0.2029324727336391
0.23064415391341
0.2700653719224539
0.2997713378062365
0.3324420844641456
0.3702645725250561
0.4152689267623469
0.4719754981977576
0.5450993890118077
0.6380225477038195
0.7464576301751921
0.867709644960287
1.0086102507162822
1.2151586772238234
1.500275756125148
1.8327201933757056
1.9677955618284493
1.6028502028660176
0.928977854507209
0.2023480862836704
0.2296644326073468
0.26925383101575
0.2997769557573993
0.3334327986056806
0.3726482016137124
0.4210289557546392
0.4815388846318807
0.5584866625507472
0.6571976033810211
0.7702141176184832
0.8969774886423967
1.0535317514695202
1.2809176495308543
1.5981271940556585
1.9358787606112735
1.9776414742191608
1.5127325777808942
0.8566889637170748
0.2016478323486076
0.2288106444261524
0.2686477534701851
0.3003181527970108
0.3344841591927779
0.3752791380954601
0.4259888486799996
0.4893927770561974
0.5707013380927978
0.675916283997982
0.7946974658322198
0.9250168363541956
1.095725310240616
1.3468679334449731
1.7028771761262225
2.035644481249261
2.0101574197078915
1.452955318859821
0.7951360288219979
0.2009896427159934
0.2279515645058863
0.2674550744527295
0.3004995915378469
0.3352004137555802
0.3773177422144545
0.4298386798387606
0.4955859122460949
0.5815960157774038
0.6922214021940558
0.8156517916669926
0.9556403938341772
1.1494017562542316
1.417450836065498
1.7950877905235838
2.1104927511175147
2.012834177766436
1.3981855387018716
0.7569679565291002
0.2005692876549781
0.2269399058524815
0.2666640360419341
0.3006146367509791
0.336095428746809
0.3799771539273769
0.4336595882169098
0.5018709468113595
0.5927992372514814
0.7049627801561168
0.8311994865631631
0.9862436964242424
1.1972176449864669
1.4841552642861535
1.8732631497132983
2.1079241506141004
1.9399080366750103
1.345256549034956
0.7356850699788182
0.2002793964873411
0.2260588478975789
0.2660609061397438
0.3006776378633619
0.3376192113208949
0.3833137024751624
0.4379519725986039
0.5094409884218818
0.6041126428353859
0.717864955153201
0.8485080078333682
1.0152121616789245
1.2318248511422336
1.542863039045211
1.9445654834305497
2.096048833254479
1.8651069343920947
1.2988031780237936
0.7210740643957008
0.2002905509756443
0.2253421892129721
0.2653759866024436
0.3007680897792329
0.3389966121062074
0.3855745101263061
0.4423617444541364
0.5177975512430799
0.6150422009113643
0.7313507385471101
0.8665791261412386
1.0408721506694023
1.267643292904472
1.612033306003598
2.0108442339866137
2.120090488174466
1.846684125241269
1.2588434095505117
0.701569607112759
0.2004277148017282
0.2247960599391435
0.2652225477386751
0.3013421158478933
0.3399101630460416
0.3865818876119172
0.4453835385017231
0.5242304487008428
0.6244075119731287
0.7447648587817302
0.8846432282959934
1.0652302775201985
1.3000128871328256
1.6693332233448763
2.0726648796386207
2.154756989530016
1.8480664363439328
1.2306961655513142
0.6784394894297573
0.2005699677607097
0.2247001808796176
0.2651947074764832
0.3014466563244605
0.3405703653346449
0.3878754298903032
0.4472951168257153
0.5285192195032687
0.6318099388805303
0.7580748914091484
0.9047428960035946
1.08935575649058
1.329159867721821
1.7114961215126585
2.12756118181583
2.191798358407443
1.8540894423873584
1.2143216750081869
0.6656827540800931
0.2011376238614809
0.2253832760526694
0.2653846914084953
0.3008997421161316
0.3409545676138295
0.3894194956201507
0.4492761956252989
0.5319843115513028
0.6382193628111762
0.7687379226792733
0.9204863510769054
1.1089640424685128
1.358798944947078
1.7534164730472517
2.166879805246633
2.2110812462835825
1.8521004694021173
1.2017242292041947
0.6593221153560553
0.2018014576399651
0.2256836690489463
0.2651588768750559
0.300556796081615
0.3413870105961773
0.3908680205714064
0.4510595007228126
0.5351160476198283
0.6447206720737796
0.776549734767805
0.931713913874961
1.126054774590692
1.385810055604794
1.7837076457861718
2.195932305898549
2.2286433177892016
1.845029085751777
1.1864450526850432
0.6499946439273689
0.2023423015341863
0.2259246533383626
0.2649568077966651
0.3002928365511016
0.3422674112542418
0.3931193947766952
0.4541319924076424
0.5389069785859413
0.6509692522367738
0.7842721172686171
0.9424501431444888
1.1430575688578402
1.4097593084308644
1.8114426705255788
2.220969286046115
2.237638546814245
1.846467252832868
1.18332119451838
0.6412520633915234
0.2031370443955467
0.2264524362717997
0.2645682291146135
0.299676860887395
0.3422001696904078
0.3940071411046269
0.4572590511296776
0.5429110298514189
0.6571621315626307
0.7913405683535075
0.9524032194695204
1.1584555181628486
1.4367029880068467
1.841137667055648
2.231668918824226
2.237334643783764
1.8395095590368893
1.1810898577800597
0.6374860535006095
0.204118721539452
0.2267182841108176
0.2639272898393203
0.2993459190453638
0.3421286845804278
0.3937732644371891
0.4581775061079671
0.5450718669626974
0.6622754308375143
0.7970290159013343
0.9601910030402128
1.1705984123613813
1.4638972054763315
1.8752624354530365
2.237100081564508
2.229648667140541
1.8210089737133808
1.1696085084132108
0.6373893381053989
0.2050414066612723
0.226682802663058
0.263541233369138
0.2993391251616547
0.3423599729331037
0.3940671852186894
0.4585657597577494
0.5457651042671681
0.6645558184710056
0.8001700127922132
0.9648599433584382
1.1790841660565303
1.4801956095172049
1.9016262418886587
2.245351642656286
2.216759302614685
1.8100104785702449
1.1641406987450864
0.6383204899082284
0.2056101306288395
0.2263906726875705
0.2633440682350409
0.2993534987292975
0.3421870378078322
0.394408066023934
0.4592563821055033
0.5470072024513455
0.6675675637142069
0.8054267941842832
0.970125172529696
1.188511243207513
1.493550357154143
1.9152390002106925
2.2444979924593405
2.1988525436629067
1.7963299654411125
1.1577849305293548
0.6391877787004363
0.2062316424142383
0.2263646987400552
0.2633352174137791
0.2995692746448664
0.3420537415934956
0.3946362521845502
0.4603159795054791
0.5489714874420877
0.6716105988512707
0.8137873511318215
0.9782006321563104
1.1977240883230145
1.5046822226833445
1.920424439468916
2.242983858257104
2.1909421758509207
1.7819039370270855
1.1462164457563535
0.6374300827908302
0.2070697975882575
0.2266871486848918
0.2632299943649063
0.2995042156522323
0.3423863595531551
0.3952891751534431
0.4616372620219608
0.5499641879680466
0.672207327134101
0.8182206877453696
0.9847498224952284
1.202310278577586
1.506353091472222
1.9277400801520856
2.254688623018502
2.190855659000251
1.7699473397548655
1.135518371260036
0.6313081770187118
0.2077916706077686
0.2269079160703153
0.2628007681128097
0.2987831242048586
0.3427466456943119
0.3959720140636225
0.4619974513089749
0.5501619719332208
0.6738737276000798
0.8232495048934754
0.9906603903333394
1.2088879763253428
1.5112786090554038
1.935857058450934
2.250336964700793
2.1737641754560397
1.75766721454518
1.1286194483829617
0.6281492804328218
0.2295786589796407
0.2263474258021942
0.2212136622774976
0.2172056247618695
0.2158028285179827
0.2154875656532178
0.2149037208227425
0.2140343484748431
0.2137325174880734
0.2137177961678537
0.213412804556438
0.2135093556500365
0.2132996266511727
0.2126628402231877
0.2129221259664895
0.213530085662976
0.2147959371863987
0.2169317529976005
0.2192918752668756
0.2462257397237797
0.245057996017511
0.2406569830171593
0.2380660598284442
0.2379220499746213
0.2384179435837575
0.238654078945006
0.2385157536539516
0.2379599589956891
0.2373950950353359
0.2369877639977525
0.2376021968545852
0.2393954090473922
0.240914101270106
0.2433844932748055
0.2470140227566227
0.2514242855483135
0.2569921731525045
0.2625751187511081
0.2561451589953922
0.2556830282289064
0.2514236606814379
0.2493520971728429
0.2487734371771864
0.2481197893740088
0.2469697698421147
0.2452831236530542
0.2441139145056028
0.2435923549941746
0.2433295704215352
0.2443956204137435
0.2476929596791046
0.2516228421354483
0.2561073673762899
0.2612683737031021
0.2657948669963823
0.270367754466634
0.275261970549133
0.2614118326393184
0.2595225830146713
0.2538286994028
0.2502494372910582
0.247590369820774
0.2451633155068424
0.2429973833271339
0.2411928767505296
0.2402302230350369
0.2405861729516083
0.2422182080616466
0.2451121047601854
0.2499578991174569
0.255287844724817
0.2605330022829645
0.2657259970358843
0.2705661169246893
0.2756982202983997
0.2817995319468332
0.2608454439177627
0.2564904356843905
0.2505460982631972
0.2465897721521631
0.24312280934106
0.2407188194053162
0.2396539036036089
0.2393629509038191
0.2400629697858612
0.2422030944526844
0.2459035726228099
0.2509551036682569
0.2571809847555928
0.2638647977428038
0.2707954222026413
0.2780490910662715
0.2855403102284359
0.2933649684047075
0.3024124965479795
0.2569803566690264
0.2518947788522474
0.2467517724438163
0.2438933070807177
0.2419111292953795
0.2418308474081772
0.2422603467000564
0.2433298775191841
0.245391486729031
0.2482882860238503
0.253571536982882
0.2609575687194305
0.2699337042063235
0.2797269891421676
0.2899121383855289
0.3004945163528058
0.3108424850946512
0.3214826265316646
0.3334698699413514
0.2546670113841346
0.2502795066367185
0.2459488894822813
0.245113230416552
0.2454798625254996
0.2466546686804901
0.2478554984254891
0.2492355612154885
0.251798422551001
0.2565415350011035
0.2643926328930152
0.2748890482147981
0.2877047422798996
0.3020002104787993
0.3161086899124527
0.3297702209074646
0.3432840103852172
0.3572872543619917
0.3719561380325526
0.2550537032841351
0.2519311138004936
0.2499206527381326
0.250688400696572
0.2513344685135182
0.2515938132124589
0.2527275692524728
0.2543442562455063
0.2586312914238927
0.2666624407996673
0.2782265231372219
0.2936112743845016
0.3109419177059802
0.3297230882989735
0.3476419496803501
0.3644854608689482
0.3813444956242978
0.3987699179735669
0.416446971036817
0.2595405891916507
0.2580453419648262
0.2567507105928349
0.2574937776931857
0.2573501929008088
0.2563598458342304
0.257034059447802
0.2607154227208848
0.2677708976268358
0.2791917694646322
0.2958717584348944
0.3166294897295078
0.3385796257682801
0.3610992784704384
0.3826497387316008
0.4030950851599999
0.4239171119604818
0.4450553534494154
0.466021932204075
0.265999047063376
0.2658588301815665
0.2640683590242908
0.2628990266059486
0.2614874531898448
0.2603520398786651
0.2616584157918064
0.2675153697760576
0.2776363631739063
0.294323946749176
0.3165515587752562
0.3420526618645638
0.3691189203112095
0.3957382849479094
0.4211634032493712
0.4455515417634846
0.4711380356879629
0.4967705145884957
0.5213732372628067
0.2733823849413097
0.2734631346969196
0.2697818302937351
0.266690993625069
0.2637909675197685
0.2630414069543783
0.2661809832425376
0.274634719202365
0.2894366982695141
0.3113256490923727
0.3389627588913572
0.3702358245786195
0.4026303825188912
0.4338052012177063
0.4637719982929411
0.4932082099844773
0.522998202314427
0.5527158818037506
0.5813114558956826
0.2820030782485129
0.2802132549255113
0.273536972562854
0.2682278208916157
0.2646165503565412
0.2651869822385899
0.2707415650178384
0.2835442500360766
0.3043667363702537
0.3312010065297799
0.3649351678348254
0.4019723658562044
0.4382141177993657
0.4741610861574735
0.5096851585799658
0.5443877549007267
0.5785619300944913
0.6125382540541076
0.6464877064089719
0.2890111862088458
0.283923787273678
0.275141720516474
0.2682598524305539
0.2651639245271674
0.2679828415475458
0.2767625402147198
0.2938236494327094
0.3203193164448021
0.3535412077231304
0.3929423213756784
0.4358858773416099
0.4765249206796387
0.5163767189931215
0.5573146668795669
0.597597491447296
0.6378062997437746
0.6787615069908677
0.7210961574158438
0.2934033475152318
0.2849451479573414
0.2747647364666267
0.2677959499694542
0.266170245831287
0.2715502762708212
0.2840951025006115
0.3059714778934122
0.3379479694779449
0.377238584121864
0.4222868674303127
0.4701531161631479
0.5164709119700337
0.5604701114941131
0.6066095252664289
0.6550568881145381
0.7025375827959256
0.7518949367381393
0.8039026674515621
0.2963387004523762
0.2847275017967629
0.2730921996634797
0.2673142667563237
0.2676941940526737
0.2756249536807255
0.2924267764099414
0.3194423489400433
0.3569548540276979
0.4020769123971011
0.4522963510376948
0.5035412613418296
0.5555611583941034
0.60748786007042
0.659761239949789
0.7159106112398194
0.7732344897911778
0.8332254488955783
0.9019005868086928
0.2969203011177956
0.2829543437487281
0.270895548993231
0.2665041508102699
0.269250758338651
0.280259967623676
0.3020135934534518
0.3336633259027867
0.3752733177243796
0.4266275424834028
0.4811242187488773
0.5379469348790814
0.5966732345885553
0.6569045481875517
0.7165971282248328
0.77877466830928
0.8481806571183335
0.9269390662689336
1.023449935047767
0.2946038062745569
0.2789636563296284
0.2682630953626732
0.266037737176553
0.2715136520220363
0.2858790675516964
0.3118918410438237
0.3486060301066432
0.3953191268458488
0.4507164393841438
0.50990726105322
0.5738766646540859
0.638615101759492
0.7052494168296045
0.7744003839457069
0.8472980381397099
0.9312311144527712
1.0367806720760038
1.1630019781439278
0.2904790331565283
0.2740633346560175
0.2653060996676904
0.2655891691289325
0.2737279018505353
0.2922659980357953
0.32258925326711
0.3642338212403603
0.4168862806063197
0.4748303212826685
0.5394681098164819
0.6106379146042883
0.6821606335784821
0.7567902971404455
0.8350425515824347
0.9226695207817164
1.028757694895579
1.1714911659727252
1.312480631853016
0.2847902890535866
0.2693505195084332
0.2627472011547482
0.2648182537947751
0.2760953360069396
0.2987231877885086
0.3333915789811435
0.3795575131974359
0.4359737761710033
0.4980779915291029
0.5687989344376642
0.6458188953578329
0.7265795481422244
0.8099735661156918
0.8976967994352807
1.0055660698412616
1.1436659640727604
1.3193850978347337
1.4372937786066295
0.2785101173488202
0.2647047172314676
0.2605017096253026
0.2650723344423752
0.2797818518535187
0.3053688903054737
0.3428896045243917
0.3932518709012391
0.4538086159156441
0.5211906898184746
0.5994137220377029
0.6833477474131744
0.7719299147691154
0.8649793592556271
0.9655181431044156
1.095903353599776
1.2751861051851867
1.465577494704983
1.5251627223718098
0.2730145781350467
0.2606939300424948
0.2587469305082783
0.2661033378425136
0.283445621445302
0.3115797537602243
0.3531533547518021
0.4069276858532579
0.4703593733481804
0.5426831283463597
0.6281138552538645
0.7220719926716803
0.8181388282376992
0.9224599066640676
1.0422045131396205
1.2006217806485902
1.415185821365834
1.608035898684793
1.5534906861623612
0.267954285001847
0.256691384832726
0.2570534769680127
0.2671682695919006
0.2868794405287949
0.3173283630475831
0.3634893428223025
0.4208733614577344
0.4871138636249514
0.5640774613070729
0.6554281917251789
0.7575726090206496
0.8624533117260634
0.9785119442004536
1.1173967332325028
1.3164948354016632
1.572733193545526
1.753274939791304
1.4686394780841692
0.2632153667461803
0.253037078783592
0.255536363050052
0.2681269244299654
0.2908277232348719
0.3244287869090177
0.3734348491661736
0.4336554123924656
0.5050768687823007
0.5881933424303093
0.6857673504644132
0.7958143605327558
0.9110145273484732
1.039083085370597
1.2059644951662654
1.449271700439968
1.7285156572186449
1.7959285306034038
1.34399990027503
0.2585291700058383
0.2497112021750891
0.2546351195351624
0.269262817904616
0.2953416352206013
0.3323219560060659
0.3826228102803187
0.4443524444456767
0.5201130050668908
0.6110604330501872
0.7149666182758265
0.8327372531925646
0.9591452202570312
1.1025450043791525
1.3042473872618572
1.5890705173657285
1.8574360007066244
1.7622055716189806
1.2405607945964394
0.25377405253345
0.2462656503444405
0.2543480448905503
0.271318885243026
0.2997405559422912
0.3386269363034221
0.3900010678807276
0.4544797777975897
0.5338632774769935
0.6317760869471984
0.7441977229369023
0.8691996936648991
1.005549342074655
1.1733041601877467
1.4071079053513165
1.7121978479390223
1.9469509020339144
1.74258424896571
1.1317331397263843
0.2492755637332785
0.2433521435990343
0.2543957230922777
0.2736368370419173
0.3034480556423704
0.344197580749362
0.3978864953465486
0.4653450764034161
0.5490497158578446
0.6521960349601879
0.7713295525771939
0.9041966927268252
1.0480192593351143
1.2392085774304942
1.5073162234355912
1.82069629202323
1.9573202597984989
1.6484220995488128
1.0255847517835013
0.2449621604901189
0.2406453102295035
0.2539690546170041
0.2754323931114671
0.3066738106778691
0.3496233652063272
0.4062633938399436
0.4756571645445585
0.563033891268296
0.6695902685677907
0.7958014806312074
0.9384863877549938
1.091899019602162
1.2989120957050777
1.5975677349791353
1.9212409237901804
1.9702806660592425
1.558328468756546
0.9352582325444312
0.2409480178512809
0.2383789253425606
0.2538196647553244
0.2773002798368703
0.3103240041775173
0.3548995883027572
0.4130493653735452
0.4839229241219462
0.5744591898487575
0.6858134859756551
0.8200509335225301
0.9697470017970798
1.1383430649549966
1.3670387897059608
1.6974231214333968
2.0286892306506736
2.0174421428153635
1.5163878956494503
0.8748370505341819
0.2370734621114972
0.2367617862125534
0.2545919064892544
0.2790134334186614
0.3135357646898866
0.3595023509569518
0.4186484780782225
0.4922917084079402
0.5860297041459915
0.7033918842932935
0.8411393200231607
0.9961996038388136
1.183317470403078
1.4319025865909405
1.7812453805237165
2.087972468671971
2.0164292263134245
1.4690895498677028
0.8331866826237859
0.2333021406675804
0.2351970220130041
0.2552432720195949
0.2804974453368669
0.3158270763035258
0.3633472085647688
0.424223562634227
0.5015303173540553
0.5964877870899795
0.7170305764808874
0.8613445649890293
1.0268947086673157
1.230343519102308
1.488239715929034
1.8490793128949152
2.091151900269907
1.9406610360805967
1.3933488489450865
0.791793242315257
0.2298167534592319
0.2337090254653469
0.2555201562447764
0.2819973878013333
0.3183293773793732
0.3670174938017948
0.428991887353324
0.5099592875097192
0.6065915571919415
0.728990328396804
0.8796018224516767
1.0524181008278226
1.2617241671840431
1.539210658808858
1.9238019518265947
2.0967620779609675
1.8650623042643049
1.3183232817446948
0.7539183149008859
0.2269507638536159
0.2324201447462402
0.2558644884196789
0.2837173157254363
0.3211882086740792
0.3706301347158127
0.4336977705158211
0.5171009323303958
0.6179432969464806
0.7446927350513373
0.8974844628829942
1.0737419465546372
1.2883939036925145
1.5941258499468287
1.9960642528403936
2.1268533542770256
1.846567350293692
1.2716143993751237
0.7211770438612466
0.2246386299579735
0.2316867764831316
0.2565868623469776
0.2852787679453052
0.3242622822803058
0.3743107050144574
0.438236954747679
0.5221073870882543
0.62616770413835
0.7586902307225909
0.915773894717007
1.0972418779654067
1.3222681638391798
1.6514398358287723
2.0571043202633583
2.169287896020984
1.8492003948023064
1.239146633576106
0.7042769776178947
0.2225384340497624
0.2309533040579945
0.2570700824862395
0.2865926224677396
0.3270068865229746
0.3776736383194617
0.4424968184430241
0.5266208342263261
0.6329087312751904
0.7674146601369053
0.9260505620474492
1.1157538149561943
1.3498017230192907
1.6987152508030603
2.0996470303868557
2.192411201987898
1.8533090741632972
1.2148761283878218
0.6870719716504974
0.2207965157632799
0.2302275157441549
0.2577408636249412
0.2883751098916704
0.3295227603668232
0.3812606197153514
0.4461598001669753
0.5307861170035686
0.641771715370885
0.7776016800099734
0.9364647089806738
1.1329571749793566
1.3694246644369312
1.7312518856747126
2.1325024198977443
2.2131923913307263
1.856240119190551
1.193688928930775
0.667900945277033
0.2191164305000244
0.2297262514926284
0.2587055639729703
0.2902843111780702
0.3317247392941189
0.3843075943880519
0.4492849503847652
0.5351904281771449
0.6495584976171225
0.7870105318136513
0.94974276696974
1.1476290830124984
1.384311449480926
1.762075131461185
2.174033269109138
2.2361567977117054
1.8453604482302823
1.177774484046517
0.6600788275754725
0.2172312766855931
0.229009083108669
0.2595183388533727
0.2917158136081152
0.332852218819436
0.3864179385521614
0.4520832675849843
0.539314285646578
0.6554453844117003
0.7930050265520905
0.9566062323997668
1.1591181739040746
1.405867378932394
1.794266212470507
2.206371209514525
2.250013540326356
1.8371617955820128
1.170780853517835
0.6585987275962791
0.2156441107919654
0.2287185985606697
0.2602542578881921
0.2928936385300629
0.3339778411274997