/*--------------------------------*- C++ -*----------------------------------*\
| =========                 |                                                 |
| \\      /  F ield         | OpenFOAM: The Open Source CFD Toolbox           |
|  \\    /   O peration     | Version:  2112                                  |
|   \\  /    A nd           | Website:  www.openfoam.com                      |
|    \\/     M anipulation  |                                                 |
\*---------------------------------------------------------------------------*/
FoamFile
{
    version     2.0;
    format      ascii;
    arch        "LSB;label=32;scalar=64";
    class       volVectorField;
    location    "0.0066";
    object      U_LES;
}
// * * * * * * * * * * * * * * * * * * * * * * * * * * * * * * * * * * * * * // 
 
dimensions      [0 1 -1 0 0 0 0];
 
internalField   nonuniform List<vector> 
13597
(
( 17.71372998657708 1.925742526458477 0.0999514505363697 )
( 17.72084395553288 1.9719833783819536 0.0994495021036557 )
( 17.746885168627184 2.0659360951451764 0.0973341815299692 )
( 17.78495101691281 2.1883110090259814 0.0924216124281529 )
( 17.817903772869442 2.2923056165693603 0.0874181056046067 )
( 17.842555209488594 2.376253852426802 0.0830781342205476 )
( 17.868832754811923 2.459378320559481 0.0774498907490044 )
( 17.89949838817147 2.5472221564507223 0.0722490952609508 )
( 17.93254718512901 2.633953444787368 0.0673186574132127 )
( 17.96541554043839 2.720065953785033 0.061520968773575 )
( 18.000970832706315 2.81394219604131 0.0564554793613445 )
( 18.040403637933977 2.9070899667980776 0.0521101813539541 )
( 18.08230085164269 2.997499356535664 0.0483912017535958 )
( 18.124568812433505 3.0914969865939037 0.0462679741322621 )
( 18.16507811340338 3.1868564148365164 0.0458099336819354 )
( 18.20774306021497 3.280010449352825 0.0468449496223874 )
( 18.25427337493161 3.368569879068636 0.0493370126641055 )
( 18.30130804923593 3.4567776473470198 0.0518348538925145 )
( 18.348567765265063 3.548687569437268 0.054321959799306 )
( 17.597608370813788 1.9690455123471649 0.0962341206324616 )
( 17.59016176751599 2.0285457965745275 0.092649554426715 )
( 17.59718906432663 2.152298802705252 0.0854795232965665 )
( 17.608001163335583 2.2949321453372016 0.0757889905304129 )
( 17.612507547736442 2.404362352466922 0.06807450080599 )
( 17.61338504778148 2.5044117140972846 0.0622089924607836 )
( 17.616739726584974 2.604738579215468 0.056695590106412 )
( 17.620684106777073 2.7086269306554964 0.0522250237741305 )
( 17.62827967399952 2.8130716310076216 0.049115827183907 )
( 17.634704976021624 2.915864716298607 0.0469303989086052 )
( 17.64032032164612 3.028150198311433 0.0464793848577662 )
( 17.644443324842666 3.146426199151851 0.0483423643251779 )
( 17.647150350757148 3.263941052991899 0.051308200929028 )
( 17.652937912424445 3.3832602920553185 0.0550928590592278 )
( 17.660083978580186 3.4996211234034944 0.06087855353308 )
( 17.667885448697128 3.609057148583102 0.0665128736741839 )
( 17.67603697775327 3.709605790163804 0.0717935041064133 )
( 17.684906520040837 3.812681798295652 0.077035955457934 )
( 17.698691728825104 3.915219997317035 0.0810834998418369 )
( 17.477002688052245 2.0031822685535925 0.0824970681979673 )
( 17.448627100021053 2.073587737829783 0.0759728454794097 )
( 17.42841131682204 2.216628799369841 0.0663267351995623 )
( 17.405712833101656 2.371732573255908 0.0550377316243009 )
( 17.379694691353873 2.487196328926534 0.047103279109532 )
( 17.35733042433032 2.599138851390284 0.0426800284752958 )
( 17.336468747799888 2.713689071388458 0.0409905116692431 )
( 17.30913410450826 2.8281229113438098 0.0414270723285848 )
( 17.285631295097925 2.946179555663421 0.0444722849844607 )
( 17.263966046423448 3.0719155350419065 0.0502548242200346 )
( 17.238254022701003 3.2020676555343126 0.0572584755247091 )
( 17.212756780362966 3.3404949732221496 0.0657921078328244 )
( 17.18854406553975 3.4825409961864717 0.0747663401800383 )
( 17.166912570082008 3.617847396041239 0.0829286302830626 )
( 17.149551552571324 3.74181171977014 0.0905142520818515 )
( 17.13470496077403 3.852427245240929 0.0958170357592639 )
( 17.118169809286986 3.952212298630415 0.0995222197839051 )
( 17.10251211093024 4.053197121444841 0.1024261584165217 )
( 17.09548364057594 4.157893379019913 0.1037223958909788 )
( 17.34527248868676 2.0255356182820563 0.0669993289563767 )
( 17.29222370775823 2.106020974114145 0.0579819659676764 )
( 17.244671753164937 2.258677148063006 0.0482274454584001 )
( 17.191463625145758 2.421011048502891 0.0395603884697781 )
( 17.134544270709682 2.544888238546424 0.0357657883928739 )
( 17.083365782916392 2.6636974134902736 0.0368757760889971 )
( 17.03044561545295 2.7893018844638138 0.0416481735111815 )
( 16.973316256283866 2.915840767259956 0.0498684812729775 )
( 16.92369762085404 3.0462702160662567 0.0603160048611649 )
( 16.87710649943181 3.1856972411275875 0.0714358499287156 )
( 16.82487083196326 3.332288020614486 0.0825094984584223 )
( 16.780651064415977 3.484298687625625 0.0930630637861986 )
( 16.741931595823484 3.636346366535044 0.1013239475638729 )
( 16.70149548430877 3.781779950885645 0.1078497417809962 )
( 16.66316446600597 3.907543070012205 0.1115955750257535 )
( 16.628071432103003 4.016237764218178 0.11243675257811 )
( 16.594268424047982 4.115540049886768 0.1116817397402726 )
( 16.558787204912335 4.216659947186912 0.1089728236802947 )
( 16.527826737843657 4.328903810395979 0.1037135137054404 )
( 17.205689165531563 2.0379911617609525 0.0520058594026139 )
( 17.13375030203267 2.127940005341037 0.0425480496528127 )
( 17.05852025410426 2.290508347126474 0.0354507144829533 )
( 16.974013045375155 2.4543805343793763 0.0336041783739191 )
( 16.88995862615229 2.581652270409799 0.0366205883416937 )
( 16.811322099533566 2.706853150491107 0.0439449339819607 )
( 16.72888686041642 2.840225187468753 0.055398761684213 )
( 16.647089042327433 2.9760612078470965 0.0683589863376626 )
( 16.573631574862592 3.1135039038860466 0.0817487839085521 )
( 16.501614097148934 3.2602607000497192 0.0932650710075729 )
( 16.428912966686546 3.4211104388000484 0.102877592994337 )
( 16.36288708520929 3.5854912023790324 0.1100431860938747 )
( 16.300422279771535 3.7451938142485535 0.1135491980933614 )
( 16.23731007448261 3.8954686101020974 0.1142856294011164 )
( 16.174796444134277 4.0201066218334205 0.1117287762610335 )
( 16.11408274201324 4.132591635806501 0.1069943618469842 )
( 16.05658808027597 4.24038124903714 0.1006530512422552 )
( 16.00045818203958 4.34876789396376 0.092504786627454 )
( 15.945478123131643 4.470415613840512 0.0818000425530222 )
( 17.064819095187186 2.039657532019009 0.0383130041992331 )
( 16.97136959400975 2.1384375268802227 0.0312661381004127 )
( 16.865797604336283 2.312449271687786 0.0291295436888643 )
( 16.754835166016505 2.476802053237034 0.0342401458103381 )
( 16.649426609487644 2.6057903175176755 0.0440375147092076 )
( 16.550021988608965 2.736376801650706 0.0569407908699572 )
( 16.448431066670125 2.871805287036356 0.0714027362127511 )
( 16.344920644043828 3.0115064276649903 0.0847035347837321 )
( 16.24239999634705 3.156323382607443 0.0970474740539035 )
( 16.142757326465087 3.316419215136119 0.106841902155608 )
( 16.0506671566832 3.485297936080412 0.1122595267703277 )
( 15.957983523609377 3.654852059551357 0.1120439961842427 )
( 15.869848541921092 3.821180386853958 0.1096080892352295 )
( 15.786526545057926 3.9732091037715103 0.1047537829176229 )
( 15.700632996056484 4.101236838902186 0.0967654987744864 )
( 15.62069582792167 4.214699660325313 0.0878693512243936 )
( 15.542515554357912 4.324723876289383 0.077933776926914 )
( 15.46493845525676 4.436527009615852 0.0668048121468512 )
( 15.38897349124374 4.562741276277979 0.0536847017073203 )
( 16.91509304793898 2.0341662887951006 0.0275235939855427 )
( 16.80058780087563 2.142265112481109 0.024791797153056 )
( 16.67151590985453 2.3221067333216547 0.029334747020474 )
( 16.539628069967343 2.4843495377213656 0.0394602838614913 )
( 16.416340952351906 2.614384589090406 0.0532505317294694 )
( 16.29405305292433 2.7469708609894514 0.0693080602376699 )
( 16.172151245204727 2.8866700339282443 0.0836412429704428 )
( 16.049741547748994 3.03130449845426 0.0955571480622293 )
( 15.923948278925169 3.1809652116534526 0.1048198946799168 )
( 15.80749156977206 3.347343689010913 0.1100639507652002 )
( 15.693003855389094 3.522594886682244 0.1105978681181632 )
( 15.573919213966056 3.6993048405235314 0.1053287367266962 )
( 15.46355607420161 3.866236666623248 0.097520620536904 )
( 15.358257941578144 4.016471415686044 0.0883446226428988 )
( 15.25148684186136 4.1495947716457 0.077231214453913 )
( 15.15091492640896 4.262195963533559 0.0662992951817456 )
( 15.05388853048041 4.371185956100171 0.0552231221834755 )
( 14.955668727928773 4.488566047232553 0.0428009537517697 )
( 14.85966525891942 4.619047780094289 0.0288790896172959 )
( 16.76658417078367 2.023397728375853 0.0195793407013917 )
( 16.633676479549983 2.135655890171912 0.0212955232827462 )
( 16.485337631627843 2.3166215333364293 0.0325709804531005 )
( 16.334833366174966 2.4773788603611666 0.04748834708855 )
( 16.191651062206844 2.609745460490961 0.0632775984939336 )
( 16.049893339711275 2.7463090502466323 0.0783720229492671 )
( 15.908605507614244 2.891030842096502 0.091697106248009 )
( 15.769068495459544 3.0363059253247826 0.1010782539587844 )
( 15.623080547206706 3.1881754963167253 0.1057302379982617 )
( 15.486940438782373 3.3615030010428635 0.1060544111545457 )
( 15.347859469020287 3.542511709200189 0.1024046809596758 )
( 15.208502313103669 3.724277538617015 0.0946375205461537 )
( 15.077915309943792 3.8929780387276978 0.0833557510464856 )
( 14.94752065371462 4.038281808550082 0.0707634672017604 )
( 14.825558568356218 4.165316970380501 0.0580260501106477 )
( 14.70613528884306 4.279290921622395 0.0459057009743688 )
( 14.58959733818239 4.393146975159433 0.0342332927500957 )
( 14.473908959005977 4.517430459453276 0.0218193330000991 )
( 14.36062501229447 4.653738971939072 0.0086716895744945 )
( 16.62043295458846 2.0022960190364136 0.0140591171012664 )
( 16.46842573649783 2.114976345920069 0.0198032200952154 )
( 16.302076842288297 2.2976569059634246 0.0360404158414542 )
( 16.13844872162835 2.457876980686057 0.0544322071285146 )
( 15.977650844601875 2.595107721531699 0.0718063441648064 )
( 15.821893293337698 2.73215640044375 0.0847419336774252 )
( 15.666440151323751 2.8748148498599155 0.0952098196741983 )
( 15.511249104346014 3.0266101838610977 0.1018011138506222 )
( 15.34920277882513 3.1849824611512774 0.1026333642973678 )
( 15.183410562448517 3.3593229613238984 0.0990895208782851 )
( 15.021812382892088 3.5439625673042885 0.0911202179859793 )
( 14.866512663149672 3.725952987803807 0.0810594265761134 )
( 14.71221470950919 3.896082471211436 0.0681641446137256 )
( 14.56194138087664 4.041638634744229 0.0539708723918538 )
( 14.425561932824357 4.164955647243915 0.0409223836939668 )
( 14.288419792880902 4.282503590077223 0.0283347142562327 )
( 14.152627121972344 4.3998730703035065 0.0168860596293077 )
( 14.019338271881022 4.527508831872818 0.0058151880191981 )
( 13.886843450225149 4.669839082602921 -0.0054933924065232 )
( 16.473880981065534 1.979019212394384 0.0111474930068476 )
( 16.307041185403982 2.097911023469526 0.0212702993982224 )
( 16.126593712108203 2.2799413423721457 0.0406636355054775 )
( 15.951439130151542 2.4334310164864856 0.060048808426637 )
( 15.78018394862026 2.57313797601418 0.076373408437044 )
( 15.61158911617819 2.7070047792927885 0.0879381050843103 )
( 15.437252797320934 2.844792079210265 0.0953341792360446 )
( 15.259173352860715 2.9993148903393427 0.0991315937920433 )
( 15.082367913947756 3.1600116330772234 0.0976543003671558 )
( 14.898561100987576 3.335841603046977 0.0906488301900853 )
( 14.719257019422528 3.527079366352136 0.0794945400530345 )
( 14.546663573865551 3.7133876101827488 0.0670134747721343 )
( 14.373529976120818 3.880717768971252 0.0534487155849046 )
( 14.209450322874073 4.027114268709028 0.0393434442163571 )
( 14.0540427084125 4.152552852183604 0.0270655666563118 )
( 13.897005829646096 4.2701735064018775 0.0157748801156453 )
( 13.739500536999175 4.389075262322046 0.005264240233291 )
( 13.587039886772663 4.51929397562917 -0.0050199326304663 )
( 13.437857656820263 4.668575779047844 -0.0156866367761163 )
( 16.338099356802523 1.9548791454795296 0.0099196451687209 )
( 16.16354799931213 2.0785193721056348 0.0238926620433689 )
( 15.965085585103065 2.257632790141335 0.0458752121840519 )
( 15.78004107752536 2.402817480370119 0.0641204490928247 )
( 15.597242210561449 2.5391743401807934 0.0782121465827042 )
( 15.412014250612758 2.672265769741387 0.0880471929180907 )
( 15.221736607179244 2.806108826142734 0.0933488199215259 )
( 15.027864306747617 2.954855726958048 0.0950020462431457 )
( 14.833351119778158 3.120663719614323 0.0908776974615959 )
( 14.636666881965263 3.3007640164561947 0.081045139153428 )
( 14.440067533344909 3.4933379947575216 0.0683816291746686 )
( 14.244955500349606 3.686990257590993 0.0546798688219967 )
( 14.059741827848026 3.852832302137813 0.0412892277839917 )
( 13.881978135562468 3.9994590448688543 0.0281675435379133 )
( 13.70369160632489 4.128558241706975 0.0164730350741012 )
( 13.523818945169191 4.246207079266206 0.005899840209069 )
( 13.347328818717134 4.368030176661766 -0.0043761384247128 )
( 13.180519234793657 4.50331160584207 -0.0145557771179598 )
( 13.015226008456128 4.661261421933836 -0.0246132611298535 )
( 16.207632464416346 1.924926986166576 0.0095697585965948 )
( 16.023629715322674 2.050606590398871 0.0261523004998019 )
( 15.812299648366182 2.228421665356759 0.0494059236936519 )
( 15.618326752457657 2.365541679215868 0.0662456526778627 )
( 15.423452699970634 2.4944742935580724 0.0790483668204123 )
( 15.222661878462596 2.627085115203935 0.0869623867173652 )
( 15.023682182014172 2.765324741109585 0.0903015665398631 )
( 14.81655359789655 2.915420198464096 0.0895231126492638 )
( 14.605757119532877 3.0829422896872805 0.0826116169111605 )
( 14.393229115908492 3.262657401680011 0.0714947369864172 )
( 14.179148235807505 3.45315828252916 0.0582846887716592 )
( 13.96509895997297 3.644101256232025 0.0447122234204606 )
( 13.760928530258958 3.814474920690151 0.0315014961009207 )
( 13.563648448527664 3.968461176363115 0.0184620409575306 )
( 13.363754080846594 4.099186270402173 0.00685794011461 )
( 13.16799518239146 4.215261287672711 -0.0037200540415007 )
( 12.980047669090904 4.340034749296287 -0.0137759128984532 )
( 12.79965209011078 4.486428305105476 -0.0226419288592749 )
( 12.619316915859132 4.655721104974822 -0.0300139820673824 )
( 16.080233738075595 1.886155999124242 0.0087575113495531 )
( 15.887807575948203 2.013298082286465 0.0273715222674065 )
( 15.672954154983152 2.189196287617205 0.0510849927013453 )
( 15.468982990277665 2.324896571538372 0.0664136126154751 )
( 15.264627238214498 2.453541225391389 0.0781574435016631 )
( 15.053371560806353 2.585452921386903 0.0852754711404088 )
( 14.841334778292907 2.7239495834047363 0.0867135085647238 )
( 14.617515738557586 2.8718302460913963 0.0829962031077429 )
( 14.39079737378529 3.0353513541562447 0.0741874949534074 )
( 14.165483909750764 3.2183420039920176 0.0624955766533438 )
( 13.933132738234322 3.4155372099586656 0.0494675454105846 )
( 13.702353747808562 3.6038447862978074 0.0357838280675578 )
( 13.475367936832903 3.775576859989482 0.0221461759468479 )
( 13.25288059971536 3.931408962015849 0.0089854638407163 )
( 13.040262262698278 4.058074040350794 -0.002115793004015 )
( 12.837954882432848 4.177079249439988 -0.0114280890501549 )
( 12.637884498653976 4.31043831148523 -0.0199166802402092 )
( 12.43929705744487 4.466129597485346 -0.0263799274609768 )
( 12.23650676138917 4.649913910951846 -0.0301024549527915 )
( 15.962597134214269 1.838886540408716 0.0085486433780466 )
( 15.768650467822672 1.967199030075745 0.0285182410908529 )
( 15.545249385501856 2.142233510866616 0.0522026326324103 )
( 15.332362220514932 2.277599921426082 0.0658538428929743 )
( 15.11672180927247 2.406536022982743 0.0767845240135301 )
( 14.898231522912909 2.534277374502861 0.0828605833351211 )
( 14.673748008283688 2.669995343936717 0.0824862638791254 )
( 14.441352527552755 2.816640289197942 0.0766127702852374 )
( 14.1982448603985 2.9782843875471974 0.0666385469844811 )
( 13.953306692065926 3.1638968164104253 0.0545860083080998 )
( 13.702206783173889 3.3653309150927533 0.0409958501945566 )
( 13.44986343103582 3.560485969363736 0.0272272171151056 )
( 13.20514147297209 3.736325622725007 0.013870454945748 )
( 12.968980798940247 3.885419577321472 0.0013098623930201 )
( 12.744424800268485 4.010838943624374 -0.0087222091687317 )
( 12.526505535172356 4.140267866216334 -0.016425949324535 )
( 12.310870778794392 4.288342469678327 -0.0226851860268732 )
( 12.08808091355024 4.448777235258373 -0.0262967451986718 )
( 11.853714036983709 4.639670139463127 -0.0275937862504014 )
( 15.85760990857908 1.7907892847678355 0.00915215878816 )
( 15.657827267373689 1.920946780942021 0.030200144518711 )
( 15.416731362142931 2.0976241941854745 0.0533655978701266 )
( 15.195712207909098 2.225781669858064 0.0660801432234275 )
( 14.974889671838742 2.3500700853715766 0.0760974622360825 )
( 14.751054644944093 2.475498451431943 0.0799181271477732 )
( 14.514819318174563 2.6083925349264643 0.0771442556252597 )
( 14.268718046091038 2.7573762294584827 0.0701193326689901 )
( 14.014312588706035 2.918827547196158 0.0605852572335067 )
( 13.752384233004324 3.101968978727806 0.0485797454400323 )
( 13.479630824237685 3.3067984868770077 0.033824216613268 )
( 13.204946423293858 3.50526984214455 0.0196084839994917 )
( 12.942479414627886 3.6858813288788927 0.0067286751759788 )
( 12.697705971928755 3.8339898926181193 -0.0047166942936007 )
( 12.46322655878136 3.962510227276226 -0.0130487105117179 )
( 12.228771543709122 4.10050947020313 -0.0191334548493183 )
( 11.987640703961173 4.257246490775839 -0.0230592567440684 )
( 11.73629139823542 4.431526110354092 -0.0248883702986027 )
( 11.491992412758592 4.645451200491631 -0.0267819639449869 )
( 15.76112869159934 1.7445646986253156 0.0090072968539805 )
( 15.554425312640571 1.8743973641278997 0.0302041068575493 )
( 15.302291491159728 2.0483792481870085 0.0527307370306884 )
( 15.07233002344277 2.1678371275755675 0.0655961244257365 )
( 14.84586099709928 2.283992191671328 0.074097943996554 )
( 14.614339978527717 2.4142075547709467 0.0758150455345692 )
( 14.367975827405134 2.5433770028444287 0.0717394421947143 )
( 14.104696151741791 2.686598816638377 0.0642859211602142 )
( 13.835883270068736 2.853846216367656 0.0546879410546502 )
( 13.557945942109262 3.03612859036568 0.0418601434753807 )
( 13.260448170942896 3.247335905565629 0.0270456166083307 )
( 12.96322838881227 3.452512672779552 0.012614512484843 )
( 12.692098998818135 3.6280739187498434 0.0003899764431898 )
( 12.44306442024589 3.7762432906507937 -0.0084414887890482 )
( 12.19648510201507 3.912725212031465 -0.0150922064517296 )
( 11.941292534142962 4.0582954262700826 -0.0200315151277014 )
( 11.671121272741845 4.222369386733402 -0.0218714396111208 )
( 11.399745775578822 4.419780948833682 -0.024547041179053 )
( 11.17728051548392 4.683212986275712 -0.0279938383926171 )
( 15.673501522141796 1.697700693905796 0.0096038403519058 )
( 15.454854617843289 1.823856675206747 0.0304342013263258 )
( 15.197499651752947 1.996048337124447 0.0523108486579439 )
( 14.965951750019933 2.110462670888708 0.0645915728719369 )
( 14.73137171791243 2.222594944792562 0.0715348323573441 )
( 14.486124855960918 2.350964458228455 0.0719393920166087 )
( 14.227056144126925 2.4740826390122144 0.0675285207324101 )
( 13.957824559823726 2.6153566405689013 0.0595158049576936 )
( 13.672883753663884 2.7865474672819937 0.0483625279812897 )
( 13.371601826136844 2.9658061033599337 0.0351559990312935 )
( 13.062606017048829 3.173884381842739 0.0213251095576461 )
( 12.750918075220431 3.3939143214732725 0.0074773658877245 )
( 12.468675359816276 3.571170337114197 -0.0027875953858904 )
( 12.20647907635966 3.7164562294351584 -0.0096591441082238 )
( 11.937807097241537 3.860993762949819 -0.0160130503175923 )
( 11.65121167294087 4.011962998464334 -0.0199724868458015 )
( 11.361715415512752 4.192674171116896 -0.0224284709907261 )
( 11.100741956835469 4.427375562507341 -0.0268593130926192 )
( 10.915968679643427 4.746181775323343 -0.0283638006261879 )
( 15.58899428174228 1.6486692166774484 0.0109843699561235 )
( 15.363543269386058 1.770781182560036 0.0316050770666283 )
( 15.10026591243378 1.9377542252863715 0.0524662659159001 )
( 14.86820345063496 2.0477902337998675 0.0631132318459823 )
( 14.627529142136176 2.1615593169480327 0.0687003013043993 )
( 14.369979583039909 2.286466327073215 0.0679007092247309 )
( 14.10104629371015 2.3998016100659787 0.06300903466092 )
( 13.820798899223435 2.543736459073999 0.054598457745056 )
( 13.517977809551065 2.719207590473787 0.0427246142137255 )
( 13.199573618242354 2.902063011514988 0.0296061725409866 )
( 12.87176606539354 3.104236446076688 0.0165368223448887 )
( 12.546373852628951 3.315564876910197 0.0045750876002666 )
( 12.25314336875678 3.499262011655836 -0.0040724112561123 )
( 11.96985683134706 3.654509088446344 -0.010669522000532 )
( 11.675448927313164 3.798420905807829 -0.0160809074305607 )
( 11.368911306245016 3.958065893606824 -0.0192702504013978 )
( 11.072933538178498 4.165909196822123 -0.0236111570609066 )
( 10.843426419706056 4.453549531882707 -0.0283048692171179 )
( 10.66195316566782 4.812803677375875 -0.0281363884328093 )
( 15.510939723615088 1.5965473369259195 0.0115177836938845 )
( 15.2822154557113 1.7138674757294785 0.0315808783144551 )
( 15.008914653688311 1.872040951365905 0.0518602376833189 )
( 14.776370647381086 1.9816744751744035 0.0612550752337285 )
( 14.528749793419452 2.0929513165385 0.0650808497706195 )
( 14.25773537881576 2.216301386520446 0.0637035003517257 )
( 13.98885488383174 2.3301980719845186 0.0585590023739999 )
( 13.694544676596925 2.4668170022896008 0.0496814364476322 )
( 13.370657830885149 2.6423229010606493 0.0375827139054352 )
( 13.033778382428109 2.833188705204213 0.0243013859899504 )
( 12.682912638774212 3.039524580976015 0.0117951694395539 )
( 12.35153943058254 3.241377146831011 0.0015606146947739 )
( 12.04055448773785 3.421052795892974 -0.0067595151493034 )
( 11.731904705688024 3.5840949117101197 -0.0122801894653235 )
( 11.422963198211244 3.736977279411709 -0.0156049009851866 )
( 11.109363947785866 3.919130750933873 -0.0185437872497024 )
( 10.819221371314573 4.1649093565222906 -0.0238281650168972 )
( 10.60692256903437 4.496203564955954 -0.0281603058655746 )
( 10.325694084286972 4.831282825517168 -0.029075114985363 )
( 15.445686109076314 1.5421622157259138 0.0117449902790424 )
( 15.206208930748296 1.651574835596261 0.0304457351545554 )
( 14.924579269288005 1.8037652281821848 0.05037595674996 )
( 14.687753672857488 1.912635496776075 0.0591016528127088 )
( 14.43438986313044 2.0231582921228224 0.0618511975795034 )
( 14.15447426916706 2.148397091880551 0.0598450270863911 )
( 13.874069435242792 2.262174133351248 0.0540473072458514 )
( 13.57225799105574 2.3908037640908746 0.0454083014909968 )
( 13.23720385365261 2.5597366630201 0.0332917419239619 )
( 12.879491524751566 2.748527735680882 0.019892004174332 )
( 12.512310759801824 2.963384469049216 0.0076343029836747 )
( 12.170560702764371 3.1719750335894688 -0.0022991556651065 )
( 11.836342069957896 3.3477575725805684 -0.0099640025280243 )
( 11.5080092720887 3.507986536588671 -0.0143414077080537 )
( 11.180889956218085 3.68609986603094 -0.0157134377433665 )
( 10.861212210544185 3.8955416074461167 -0.0188835360230102 )
( 10.590296180694898 4.178294588638796 -0.025280469850677 )
( 10.333615630303775 4.533493643748856 -0.0265266944280912 )
( 9.86024685662759 4.775191344794355 -0.0288467229497084 )
( 15.381296704255467 1.4821186435263438 0.011430709027961 )
( 15.139380385020464 1.5902774258757115 0.0285500115669461 )
( 14.85486136673371 1.7357018595905345 0.0471432538695567 )
( 14.607421585613132 1.8363025440645424 0.0552119499585694 )
( 14.347891960374485 1.9484662158630908 0.0580766378536752 )
( 14.06369998615957 2.077465728907651 0.0556133413410194 )
( 13.769453623732693 2.187063831018157 0.0493748064936649 )
( 13.460606615399094 2.310163220018329 0.0409587592977258 )
( 13.107262238159258 2.478990632801239 0.0288597688000763 )
( 12.732773599209164 2.6680723503641426 0.0161894182806839 )
( 12.35219136308514 2.8822044515674987 0.0044780447671826 )
( 11.986241881267851 3.095178523806097 -0.0053132290225162 )
( 11.641213729989335 3.278552653810117 -0.0111161541164997 )
( 11.306655387931622 3.4405182219868387 -0.0144377121456556 )
( 10.95988503916884 3.637130405648804 -0.0167749911025646 )
( 10.628653488160518 3.8794865844847215 -0.0216101822804603 )
( 10.363684920245843 4.194115368757551 -0.0258076262618448 )
( 10.014968642662144 4.542365746682108 -0.025035441404642 )
( 9.238562672175606 4.614891915337569 -0.0280118384042537 )
( 15.320159948342086 1.42019226818112 0.0096941938231316 )
( 15.07782976122718 1.5294090627634709 0.0265897368104772 )
( 14.790387600642578 1.6719817238664354 0.0441534878121432 )
( 14.538485677214268 1.7686046396259605 0.0514989432017345 )
( 14.268606254045684 1.877349842681989 0.0546312061090667 )
( 13.969922074139731 1.995919231278372 0.0519706981787798 )
( 13.666498400093428 2.104297866260184 0.0447891085083002 )
( 13.351712541237596 2.2252710939403664 0.035598193340535 )
( 12.973749384552482 2.394791432612075 0.0240411037624446 )
( 12.58348721709024 2.5913372129247 0.0127514606854608 )
( 12.200118829629972 2.8011921519465752 0.0020099287155854 )
( 11.824131485081791 3.015865841315967 -0.0068435043688029 )
( 11.466076588992635 3.209467893235136 -0.0112741698872722 )
( 11.1064325768764 3.3792777894669177 -0.0133307791512114 )
( 10.75066509581645 3.585345249729137 -0.0162934926297548 )
( 10.419907870308178 3.860324214146136 -0.021640212860243 )
( 10.107300105400492 4.203735319388084 -0.0247348079318361 )
( 9.676090616043128 4.525647981517651 -0.0264662400676091 )
( 8.406013345687036 4.303439815012371 -0.02631139187664 )
( 15.266600198492055 1.364292969119732 0.0082116285704703 )
( 15.01840646518394 1.4694191351733863 0.0255878842474841 )
( 14.727564353116458 1.6076739757358047 0.0422186627047423 )
( 14.47536005828731 1.704356233682136 0.0493298676044643 )
( 14.195420100895468 1.806891892725088 0.0517182811303015 )
( 13.887835808124684 1.9144931767502968 0.0480988674211863 )
( 13.575335987470876 2.0276481781891857 0.0407285527497383 )
( 13.244584553061433 2.155558026220234 0.0317928447579531 )
( 12.847610685399095 2.3178078230927994 0.0208154745593255 )
( 12.43763195652953 2.51607023894964 0.0100511784830173 )
( 12.048054642253438 2.721357047789448 0.000250050178999 )
( 11.670315691452876 2.923635306813772 -0.0078775530431711 )
( 11.29552538026269 3.117666286772448 -0.0111817911850919 )
( 10.912626016339834 3.305241730229897 -0.0135084043570788 )
( 10.545090111007092 3.5329052133375547 -0.0155081461735353 )
( 10.207299183920568 3.835761030646138 -0.0178068803687494 )
( 9.819915039973289 4.191752470530369 -0.0212591973610344 )
( 9.153899396056824 4.395305784666248 -0.0230614278347447 )
( 7.569111447270213 3.954097001607731 -0.020671698386366 )
( 15.219278436715843 1.3058656643281958 0.0072705347675715 )
( 14.966753739873848 1.4098548332982963 0.0244956201973927 )
( 14.667609570601751 1.544170152452353 0.0403284885706907 )
( 14.41150020688035 1.6350014375479371 0.0465843843980649 )
( 14.126695201088722 1.736929711144726 0.0477153411020446 )
( 13.81945811962362 1.846700624677305 0.0440201023493252 )
( 13.503000003416266 1.959357943165549 0.0378699787112503 )
( 13.149566682500842 2.0847252394888773 0.0292775108962972 )
( 12.741237400285462 2.244745963340798 0.0184782785951038 )
( 12.32326875412426 2.4407532924527757 0.0085578586110628 )
( 11.91551408504725 2.6440723130885453 -0.0008223911569361 )
( 11.5128673919636 2.837500301251294 -0.0088579477747219 )
( 11.118086934382196 3.025357916460415 -0.0129557899128944 )
( 10.723085860808766 3.2249905487274853 -0.0162656870422794 )
( 10.34803356412594 3.481797546930038 -0.0177308431271875 )
( 9.985212433118676 3.820610519469756 -0.0188652312833195 )
( 9.529220993669616 4.16493954058646 -0.019616683761678 )
( 8.550763119051373 4.178412811960932 -0.0174472656073324 )
( 6.828273123162314 3.620615163759185 -0.0169225305690295 )
( 15.177379800712645 1.244430925368814 0.0062638782924798 )
( 14.924758835887108 1.348185327981739 0.0224345241814855 )
( 14.61708426000427 1.4817994674553363 0.0376262034560895 )
( 14.352231881771235 1.5670959456822229 0.0432356782741837 )
( 14.059929771935586 1.6643425842946225 0.0436672767010533 )
( 13.748754307344251 1.7739681795044548 0.040619190824652 )
( 13.425119758930506 1.8755030426969903 0.0346242963466471 )
( 13.06014933567113 1.998782908510311 0.0264676667316835 )
( 12.652866188420338 2.168838751920745 0.0164045123327952 )
( 12.226854730272397 2.3619849222695053 0.0064732569081985 )
( 11.79596218108802 2.567232670935397 -0.002884765645279 )
( 11.367595673018805 2.7544597967995386 -0.0101948997228375 )
( 10.954493884518088 2.9382645961888683 -0.0160201971083324 )
( 10.537710662596382 3.1539259409704945 -0.0197609956839321 )
( 10.14987590609819 3.430244998892321 -0.0194661488455854 )
( 9.736579727260663 3.786771865696228 -0.0210695874317063 )
( 9.186296417185652 4.090427301693623 -0.0218122349573183 )
( 8.02055195160767 3.956014658452154 -0.0163880612384518 )
( 6.123538684943374 3.2695299072013837 -0.0151587239383024 )
( 15.14084736903766 1.190921955000323 0.0051557232801108 )
( 14.885276771920903 1.289182736641159 0.0205023849945426 )
( 14.572008434691842 1.4167585801057088 0.0347300837683788 )
( 14.300836611103264 1.500731893740554 0.0400358389266531 )
( 14.000787744952495 1.5910491176795305 0.04049798529675 )
( 13.685185935653177 1.692019728781088 0.0367751751694553 )
( 13.347955045689297 1.788456690384712 0.0305659856866843 )
( 12.975714734433732 1.919099805250655 0.0236399808422268 )
( 12.56859069847485 2.0924015952786785 0.0145511306498079 )