/*--------------------------------*- C++ -*----------------------------------*\
| =========                 |                                                 |
| \\      /  F ield         | OpenFOAM: The Open Source CFD Toolbox           |
|  \\    /   O peration     | Version:  2112                                  |
|   \\  /    A nd           | Website:  www.openfoam.com                      |
|    \\/     M anipulation  |                                                 |
\*---------------------------------------------------------------------------*/
FoamFile
{
    version     2.0;
    format      ascii;
    arch        "LSB;label=32;scalar=64";
    class       volVectorField;
    location    "0.0003";
    object      U_LES;
}
// * * * * * * * * * * * * * * * * * * * * * * * * * * * * * * * * * * * * * // 
 
dimensions      [0 1 -1 0 0 0 0];
 
internalField   nonuniform List<vector> 
13597
(
( 17.730508957676786 1.895523694346826 0.1183463763345548 )
( 17.736357008974274 1.938304642322612 0.1233339399485777 )
( 17.759159897660307 2.024762804931633 0.1306924915369323 )
( 17.79495867360223 2.1361738305604505 0.1383913608129397 )
( 17.825505123693212 2.232722935239849 0.1455365135817937 )
( 17.84539844187799 2.3134321521585206 0.1526632142099065 )
( 17.869302614618256 2.3928578046799256 0.1594093455001366 )
( 17.896482872058474 2.4795552179749154 0.166778822891331 )
( 17.925493949274706 2.567540549245848 0.1729934172890342 )
( 17.957007628293958 2.655383658582387 0.1786773235110951 )
( 17.98891900351573 2.7533367676619744 0.1849531263489696 )
( 18.025708297882872 2.851432325222923 0.1892222191284386 )
( 18.06572795254913 2.948742830880186 0.1921848944736561 )
( 18.104773924790045 3.0518404143991504 0.195238348921802 )
( 18.14320019507191 3.157063823722911 0.1987747190636173 )
( 18.184087395191 3.261265027695242 0.2027802158756999 )
( 18.22823416304439 3.3616539105615626 0.2054653770549895 )
( 18.27222970884177 3.461709040026762 0.2064170301377011 )
( 18.317000604381963 3.5653610801934024 0.206131643842036 )
( 17.58143870797768 1.9496282503330231 0.1480157088677388 )
( 17.566766174090503 2.005996574287768 0.1577990277507796 )
( 17.567225794151735 2.119569557625942 0.1735992865715748 )
( 17.57327132795309 2.249155271363385 0.1911325459396924 )
( 17.572960505114608 2.351947038167826 0.2064935805733464 )
( 17.569421529514155 2.448450273856178 0.2212446359476149 )
( 17.57143414991866 2.5454997040338285 0.2346652623461472 )
( 17.574576634531986 2.6483412476290447 0.2485836750689999 )
( 17.580611679147836 2.753678802451585 0.2606988292519639 )
( 17.587807442478212 2.859435234597491 0.2709832731615215 )
( 17.594284274094264 2.976718420702188 0.2811245165816472 )
( 17.600128146292082 3.1009190756384504 0.289279365384613 )
( 17.605454656902346 3.225929756529797 0.2953606269391284 )
( 17.613172295528923 3.3546977773899957 0.2992039421252683 )
( 17.62078643861466 3.480998201791004 0.3012070440973066 )
( 17.631024894430183 3.600073938251832 0.3019506451448224 )
( 17.64238356140086 3.709683931162348 0.3011203874235004 )
( 17.651777374303844 3.8215725824629865 0.2983760684158771 )
( 17.666027654233407 3.93259523470835 0.2936461960320425 )
( 17.41976220328017 1.9940248996090644 0.1732475432808494 )
( 17.378672199160643 2.0614960652346244 0.1886098958379975 )
( 17.35220463613968 2.193059059812955 0.2120323450259881 )
( 17.326781112644813 2.3355067376356087 0.2367867638742856 )
( 17.295627136672397 2.445664895547376 0.2560604752852124 )
( 17.270950111587478 2.5548982018749844 0.2730977075433513 )
( 17.251793794233667 2.6678048626224915 0.2873255129195686 )
( 17.226059354665853 2.7835635513997907 0.2997557069495984 )
( 17.20379911373139 2.9046275198663563 0.309753585759752 )
( 17.18557731277271 3.035053413214017 0.3171486611625787 )
( 17.164504931755076 3.1719878972539224 0.3222136331942358 )
( 17.142144591940735 3.318128394160928 0.3241339191460624 )
( 17.12051733452015 3.4680646418782053 0.3225840338469725 )
( 17.101757752538564 3.611624405136552 0.3178343070643544 )
( 17.08564459328638 3.743367590811917 0.3112621755000952 )
( 17.072382445491062 3.8599873502654254 0.3035302512496776 )
( 17.057056500822657 3.964874835372664 0.2945348384941176 )
( 17.040394549697055 4.070589841210483 0.2837800022579235 )
( 17.032663841012347 4.179542786150258 0.271980397899884 )
( 17.244614457373558 2.028365075158676 0.1956306797163947 )
( 17.178913261584057 2.104528629565703 0.2154416273671282 )
( 17.129383420397527 2.245277040429095 0.242308719369905 )
( 17.076842573485376 2.3960470905981284 0.2679514903600911 )
( 17.017305682036227 2.5154239585728564 0.2856294084238694 )
( 16.966422055811055 2.633203057041906 0.2984948162495375 )
( 16.91647528276065 2.7592210971917384 0.3076719745192405 )
( 16.862648464459326 2.889053662217256 0.3130602128273718 )
( 16.816612751188668 3.024013879057581 0.315073842560777 )
( 16.774875017510464 3.1679190862467186 0.3135869107562276 )
( 16.728537456342195 3.3203526330513498 0.3078214479622529 )
( 16.686779171664615 3.478740397568801 0.2985773958723187 )
( 16.64918372545057 3.636517760770084 0.2867192155485988 )
( 16.610206057136764 3.787325230687279 0.2725739191153394 )
( 16.571801459257234 3.9170303444664336 0.2580061727196511 )
( 16.5359160106136 4.027850261483246 0.2440866661594451 )
( 16.5002986311447 4.128634608209872 0.2303585368561122 )
( 16.462198761094253 4.230717940804371 0.2157183556619936 )
( 16.428435234078638 4.343123675463423 0.1999032520961271 )
( 17.069301440570147 2.0509014908908783 0.2151193940870333 )
( 16.988324804963636 2.13527223937018 0.2356828294405312 )
( 16.91545276462794 2.2855743919962634 0.2619164105638562 )
( 16.835148495469824 2.4402335326455664 0.2819339375317586 )
( 16.752982673628832 2.5647961282069622 0.2920544013201859 )
( 16.678274651603903 2.689303946358734 0.297290576416978 )
( 16.601486448438965 2.824260452255467 0.2978021746277189 )
( 16.52563251417774 2.9629082558249373 0.2938771850762933 )
( 16.457812051487878 3.103871347225911 0.2862512969276641 )
( 16.39178685231514 3.25413057433496 0.2752053809200034 )
( 16.32336462667004 3.4183026835039363 0.2607136058404182 )
( 16.25844134283289 3.586226395654218 0.2443638500837645 )
( 16.195844859046208 3.748875386965892 0.2264216099340593 )
( 16.131652415242907 3.900899044582184 0.2075253762500688 )
( 16.066425258316546 4.025490141596374 0.189510370391604 )
( 16.002923033251406 4.136745521135633 0.1727683346085406 )
( 15.94269601892051 4.243074466267164 0.1572408152823094 )
( 15.88276820288645 4.349668354190819 0.1417966785788985 )
( 15.823536604707453 4.468676006458168 0.1256328178644646 )
( 16.9030014216317 2.059609974662868 0.228907447673303 )
( 16.807874579564963 2.152154042570976 0.2472909593689818 )
( 16.70953905673359 2.313918714292447 0.2683783983394355 )
( 16.607595180737725 2.470310204698592 0.2797543020436963 )
( 16.508810098913674 2.59771842449051 0.2807788101492456 )
( 16.41579910822986 2.7280298244564207 0.2774438333484001 )
( 16.32319550900189 2.864405255498909 0.2692865335224604 )
( 16.227516109536715 3.005034136284205 0.2570747645431289 )
( 16.13074713628643 3.151477391107044 0.241763478964142 )
( 16.03661248728059 3.3139163329955625 0.2239829997647633 )
( 15.94618840491783 3.4840142208904337 0.2053090681534707 )
( 15.853637120369392 3.6536994035433263 0.1855318252095492 )
( 15.763691558140572 3.8196938989060754 0.1649157065865614 )
( 15.676052117060516 3.970035657311787 0.14525857877865 )
( 15.58651732076322 4.095025773939573 0.1270204054257262 )
( 15.503213882561832 4.205002802714048 0.1109918796426532 )
( 15.421843919395936 4.311369310522377 0.0962629583725687 )
( 15.339864645665804 4.419285022634351 0.0818855734244801 )
( 15.25894759588374 4.541244328702195 0.0678785177260012 )
( 16.740784925204366 2.059368635452978 0.2364337483837676 )
( 16.632184885534 2.160859335204499 0.250452602597514 )
( 16.51635186069177 2.3296532294477665 0.2628632484490082 )
( 16.398702556650697 2.4841342072780024 0.2641115016304083 )
( 16.285880778758333 2.611775865868403 0.2570624497541686 )
( 16.173415886468266 2.743478810694668 0.2456234335482706 )
( 16.061505893849542 2.882061518212209 0.2310394594971118 )
( 15.946496056540887 3.0263096519769643 0.2134247343353017 )
( 15.824499943032343 3.175575612686706 0.1935839460646843 )
( 15.709377419425628 3.341386903259556 0.1737184734829759 )
( 15.594128962427888 3.5156405500292403 0.1530609434834399 )
( 15.473410610155806 3.689853621159573 0.1317351346135615 )
( 15.359563344082398 3.8537089382180256 0.1120121111676847 )
( 15.249263861896946 3.9998117402113023 0.0937465747722201 )
( 15.138048062086318 4.128167963026751 0.0767374801786084 )
( 15.032756300694889 4.236097087803112 0.0624624174659983 )
( 14.931263033166836 4.339953400373202 0.049687397759498 )
( 14.82827824433853 4.452078555671662 0.0371391780756177 )
( 14.726665445462537 4.577247670686264 0.0250734875776639 )
( 16.592455370484355 2.0521467731208585 0.237750824301699 )
( 16.471867005821238 2.157295076707118 0.244860471103729 )
( 16.341717912436685 2.3280844688957654 0.2475356671711242 )
( 16.20878112503823 2.4811470094395647 0.2397967812904269 )
( 16.07976202561526 2.609378172712901 0.2258853197232421 )
( 15.94935581338432 2.7432679660429358 0.2093791655454959 )
( 15.8155048102386 2.8856071890021853 0.1906911301666635 )
( 15.681172427094516 3.0289850158015463 0.1701720630547687 )
( 15.537520746571236 3.1781939832264325 0.1485535635582058 )
( 15.39948459674496 3.347986258473868 0.1283252181923695 )
( 15.257436742620868 3.5256623970996848 0.1075146834431691 )
( 15.11370421078112 3.7031432799212936 0.0870453570282801 )
( 14.977110751301256 3.866509398470252 0.0689445101627485 )
( 14.840817060170474 4.0062112462417545 0.0520435445058372 )
( 14.713216954593996 4.127647580384655 0.0376237055542695 )
( 14.588162342408944 4.235723678423175 0.0249506456212419 )
( 14.466088691911969 4.343495530811373 0.0133620094934803 )
( 14.344583716249648 4.461784381806159 0.0027057757266551 )
( 14.224625448805307 4.592067297455805 -0.0073419157138182 )
( 16.45742691338089 2.033194334406104 0.2315403121180848 )
( 16.324736489893024 2.13723867513258 0.2303149295044071 )
( 16.179447481572897 2.3092825104865806 0.2245181049681766 )
( 16.033468739102137 2.46166678489543 0.2112503781426597 )
( 15.886204302491466 2.5936008084048243 0.1929846374536194 )
( 15.740700386322374 2.72659653946072 0.1733106234879471 )
( 15.59019600333811 2.865856220322931 0.1522895644906611 )
( 15.4372868071146 3.0136210711908515 0.1318731706166626 )
( 15.276344724940763 3.167930419086085 0.1112510204469032 )
( 15.10626269445444 3.337235336386492 0.0895006752491752 )
( 14.9382651733595 3.516310051452248 0.0695712039997214 )
( 14.776392308744864 3.692107472297689 0.0515669532954862 )
( 14.61336415258268 3.854703912883336 0.0342374571086573 )
( 14.455553778475888 3.993526290397431 0.0187238445516666 )
( 14.312821955282631 4.110570381863043 0.0064293690378367 )
( 14.169020612574686 4.221195124953021 -0.0049101136481204 )
( 14.026740344341713 4.331960888439633 -0.0150272215131134 )
( 13.886000666614851 4.453163867181519 -0.0234762374349721 )
( 13.745506488054744 4.589199470233112 -0.030674295160671 )
( 16.330602001927144 2.010160270333082 0.2203664393058332 )
( 16.187909214931008 2.119210465093492 0.2118339867480306 )
( 16.02940204855186 2.2893152048292045 0.1993755316297606 )
( 15.869796073246892 2.4348133904747398 0.1819480395291529 )
( 15.709012193993075 2.5685673979850634 0.1615792869087156 )
( 15.548195918390984 2.6973280108448745 0.1402264956041713 )
( 15.37699691163399 2.830369479974104 0.1180893402202966 )
( 15.198315945251377 2.9794467381947034 0.0968588541075607 )
( 15.019123147067356 3.134771853673341 0.0772381610762116 )
( 14.828571819742375 3.30398256459553 0.0572702904454675 )
( 14.639506227948436 3.487980213919285 0.038578712511661 )
( 14.457766701957691 3.6664401495615095 0.0219130221285596 )
( 14.275168248467864 3.825019182287438 0.0061742794840703 )
( 14.102150416511908 3.9637396542128327 -0.0071079363429626 )
( 13.93854159049768 4.081919028435024 -0.017967338970885 )
( 13.77381919594615 4.192224925151013 -0.0274725288179644 )
( 13.60886263566946 4.304074264643147 -0.0352886265159871 )
( 13.447763890948217 4.427600321068983 -0.0418481992493088 )
( 13.289603146572029 4.570729885781755 -0.0476615101114874 )
( 16.219632206551434 1.9847378229443529 0.2062327139842711 )
( 16.069610181836833 2.09796881533766 0.1924289239896305 )
( 15.89144060149684 2.264454101708866 0.1743494093394643 )
( 15.719981217192144 2.4008102721923024 0.1539163953825389 )
( 15.546663819030416 2.530019205674767 0.1324071593141635 )
( 15.365416979830863 2.6566252325614035 0.1101969648361854 )
( 15.17425489104335 2.7846541474269784 0.0876232707305047 )
( 14.977840504610995 2.927787943086676 0.0663236468660976 )
( 14.777869838037946 3.086830792580048 0.047911706902373 )
( 14.571867252419487 3.258651003653116 0.0306800087616327 )
( 14.3632204786969 3.442719490880222 0.0134150505095436 )
( 14.155608187689657 3.627098662789784 -0.002342776247791 )
( 13.959753454299577 3.783580920286152 -0.0156795582118848 )
( 13.772140768380163 3.921896317330792 -0.0266980407853618 )
( 13.583965843877689 4.042969421438169 -0.0361489956771491 )
( 13.39559666136063 4.1528478181940365 -0.0441504690174128 )
( 13.210289415942938 4.26723929791288 -0.0509806314739445 )
( 13.033936949372412 4.395909879950294 -0.0568872991683152 )
( 12.859258129328133 4.548094080670297 -0.0618297925571477 )
( 16.117936695164353 1.9527033473107116 0.1886573458909005 )
( 15.955742053185835 2.067825699016405 0.1707026313470675 )
( 15.76056466993608 2.2325276746702087 0.1492881415585008 )
( 15.578251988223837 2.3598977867605107 0.1274516528159056 )
( 15.389582223868905 2.480647492310056 0.1050048340352745 )
( 15.189558733046953 2.6053578464735967 0.082478850621975 )
( 14.98703841469672 2.73695817392936 0.061297982661854 )
( 14.774648747393146 2.880309478515847 0.0418223618740643 )
( 14.554966845216878 3.039649994605689 0.0247677031939984 )
( 14.330570691606663 3.21033779029668 0.0080089828089539 )
( 14.103111417246389 3.3913286778167278 -0.0074762244410069 )
( 13.87491886343166 3.5718374700936 -0.0211675154371082 )
( 13.658227915148723 3.732252912846005 -0.0330758397608098 )
( 13.449629795622458 3.877233281418328 -0.042767145957547 )
( 13.239040956070816 3.999223634188234 -0.051161558965738 )
( 13.033788309755693 4.1071748301104565 -0.0583128557620514 )
( 12.836295188473365 4.224417058525719 -0.0644849419338903 )
( 12.645813993486549 4.3644255645323655 -0.0693408023853518 )
( 12.455319671961814 4.528470384448399 -0.0720747178952522 )
( 16.020557147038982 1.9112293220426568 0.1695539052753587 )
( 15.847452553657757 2.0269229201977463 0.148465727768793 )
( 15.64276826361462 2.189884812462021 0.1255118650674323 )
( 15.4457463505627 2.3153015052754835 0.1031548976213578 )
( 15.243669854475996 2.4354322595247604 0.0809165785701817 )
( 15.029752814181624 2.558516635685978 0.0593466645409082 )
( 14.81238131678674 2.6887354841336 0.039961358607809 )
( 14.580791170862897 2.8284750641198677 0.0216511732224001 )
( 14.34157354267469 2.9829214902042294 0.004741500867689 )
( 14.102011708126348 3.155773196059592 -0.0109927275934387 )
( 13.854949367007984 3.342282293817733 -0.0249232527628843 )
( 13.609587985173464 3.5198979650407165 -0.0370395499313432 )
( 13.36937478030551 3.6808804328788423 -0.0473792373693661 )
( 13.134166613546396 3.8268372469975778 -0.0561860570372909 )
( 12.91038482051946 3.944354016717002 -0.0640903094572114 )
( 12.69798769297227 4.055157126141129 -0.0701883884373049 )
( 12.48773287471272 4.181164540794135 -0.074692093363361 )
( 12.278561010331847 4.330699330720379 -0.0772613300697539 )
( 12.064048029584818 4.509268097491274 -0.0768655825327254 )
( 15.931075711705049 1.8615841055479452 0.1497304805095779 )
( 15.75256657652237 1.978717241565607 0.1271502586932265 )
( 15.534325536468891 2.140214258856909 0.1032245023448081 )
( 15.32308015363726 2.26405945663484 0.0813201496257254 )
( 15.10661616914645 2.38356565589099 0.0599137625890238 )
( 14.883246180045326 2.5021566005818947 0.0395551104798479 )
( 14.650557536080033 2.628589042602755 0.0213209347295732 )
( 14.407379610095113 2.7657541623423865 0.0044335104328975 )
( 14.149902672003716 2.9173596132821564 -0.0118452667832377 )
( 13.888830353051036 3.091959149929134 -0.0265092186890835 )
( 13.621877402403015 3.281741760250048 -0.0393572861637802 )
( 13.354044034326911 3.465163834605617 -0.0505341909246045 )
( 13.094538775221595 3.6295392075825927 -0.0592358871851294 )
( 12.845377055792138 3.768275818050532 -0.0671343009290695 )
( 12.609814130630491 3.884098417506968 -0.0742999140124804 )
( 12.381297030910122 4.005092657006034 -0.0790037406451028 )
( 12.154067142335428 4.14614549793072 -0.0815223202689226 )
( 11.919424493251142 4.30028912900607 -0.0814873631764483 )
( 11.671815780876646 4.485702310039346 -0.0788018099020217 )
( 15.8504754679595 1.8115000681169535 0.1307660251785448 )
( 15.660691710221048 1.9310082102067976 0.1067603390122728 )
( 15.42093077133526 2.092905698269124 0.0819442299068831 )
( 15.198801153201533 2.208091327525356 0.0606779480580157 )
( 14.973949441391166 2.321508961475215 0.0404045948540925 )
( 14.742615995661112 2.437654902458609 0.0217075481405592 )
( 14.495706055889416 2.5607900797032883 0.0045757109750311 )
( 14.236144840174656 2.6985375734182973 -0.0113322295393498 )
( 13.966253160788048 2.84888125152508 -0.0265100797230373 )
( 13.686704802874925 3.020368429540568 -0.0403933239110816 )
( 13.396700760289878 3.212528301690316 -0.0523539037735579 )
( 13.105228752193703 3.3981116311719037 -0.0618380315249806 )
( 12.826720534529487 3.566906020071744 -0.0694639180165049 )
( 12.569950209991406 3.7046046785992575 -0.0765982425100822 )
( 12.324337410982956 3.823537090982944 -0.0818945856462374 )
( 12.07813868340113 3.952721809484594 -0.0849543407517307 )
( 11.824364206463752 4.10192130357377 -0.0858291561148526 )
( 11.55963259465934 4.26951535572758 -0.0838961267335573 )
( 11.30074611398486 4.478868626915493 -0.0809417639476704 )
( 15.775723672580044 1.7620333080488717 0.113588157840414 )
( 15.573939538471668 1.8802933171032477 0.0892410025029311 )
( 15.318800826903878 2.0390464300442317 0.0643447308371836 )
( 15.085336235250995 2.146672479007783 0.0425635826187073 )
( 14.851873663758145 2.25142698511164 0.0228556293846988 )
( 14.609940090096533 2.3705864850446283 0.0062460687419827 )
( 14.350811706188589 2.4887975662275377 -0.0099178028342315 )
( 14.072783512196908 2.62021321869029 -0.0254996366476209 )
( 13.787028860146885 2.7757649461925924 -0.0396287891759014 )
( 13.490821031630086 2.9447750568805526 -0.0522291650034101 )
( 13.174473264423511 3.141894451668148 -0.0631595429737737 )
( 12.859030678486258 3.333818508155653 -0.0715677548953465 )
( 12.573090679154404 3.497532238387793 -0.078291039662653 )
( 12.312237041783996 3.635227980479123 -0.0836390196489468 )
( 12.053288347765974 3.7621033827643946 -0.0870313121093785 )
( 11.785404594121689 3.898306428631185 -0.0889276175438838 )
( 11.50183108012969 4.0538496236100885 -0.0878067886503635 )
( 11.21511640500188 4.244212464572096 -0.0862512644155382 )
( 10.976177045116648 4.504269909966237 -0.0850328115949382 )
( 15.706032643207095 1.7112001029884096 0.0975470309770202 )
( 15.48951345774446 1.825204687345974 0.0732588469610224 )
( 15.224023361536617 1.9820334674857776 0.0489524822215236 )
( 14.986176662077206 2.085710079374953 0.0276976775617244 )
( 14.742210029784331 2.186395859175419 0.0090009465159895 )
( 14.483933115751698 2.301980933939323 -0.0071379895200612 )
( 14.210671374986353 2.4132304785183254 -0.023156844431511 )
( 13.925977523877236 2.54284208472249 -0.0375827433457832 )
( 13.623127108172511 2.7009799876369742 -0.0504103656422115 )
( 13.302973489161513 2.865560644762569 -0.0622666467159947 )
( 12.975057349722794 3.059043775407834 -0.0716018363158952 )
( 12.644688853747814 3.2650070062019223 -0.078791641805394 )
( 12.347856731034426 3.4301235111481447 -0.0842740349460215 )
( 12.072572413235545 3.564563337357055 -0.0877746372366312 )
( 11.79024356220376 3.698566318365653 -0.0907571162993298 )
( 11.490679099029183 3.839261160582061 -0.0919182269841544 )
( 11.18616638460353 4.010861007075131 -0.0906842853527201 )
( 10.907407808774911 4.23819978033876 -0.090900030006941 )
( 10.703184120517998 4.554453266350369 -0.0886744910220503 )
( 15.636547300461096 1.659523184851843 0.0820290843240395 )
( 15.409282407945364 1.7691029613876017 0.0577817415451816 )
( 15.13422040327524 1.920473542545824 0.0339972327760815 )
( 14.893812314381773 2.019697182899449 0.0142251690976049 )
( 14.641779784960184 2.121678418300723 -0.003031809231416 )
( 14.36894452915879 2.232843289620668 -0.0191001752498377 )
( 14.085090566671749 2.3337075110977787 -0.0348901779579713 )
( 13.788240305791504 2.4646307125970224 -0.0478242472515348 )
( 13.466840254044664 2.625504995968439 -0.0593700624601878 )
( 13.129053294018703 2.7933071586569134 -0.070035900642183 )
( 12.78262258526378 2.9802278969987506 -0.0783385693001628 )
( 12.438993296020618 3.176530514873908 -0.0846252478155088 )
( 12.130349725589536 3.3476299297255148 -0.088846714318334 )
( 11.833388448154835 3.4915472205105136 -0.0914021097388323 )
( 11.52511093897603 3.6239805733351935 -0.0935387579012383 )
( 11.204638669275022 3.772388637496225 -0.0938605964405503 )
( 10.891478871237586 3.9697783577220975 -0.0943033007546492 )
( 10.641270540830456 4.2502207800614045 -0.094803272511542 )
( 10.436911379537156 4.610392319311042 -0.089623513951135 )
( 15.571962904650755 1.6052441731150555 0.0686268018442637 )
( 15.33689478209121 1.709482391973864 0.0445926438154637 )
( 15.049450874707867 1.851855439682248 0.0202926901132073 )
( 14.806035404596477 1.9508266089231203 0.0016401555813156 )
( 14.54521037289352 2.0493404212653297 -0.0144172966758065 )
( 14.25783122413226 2.158139449103149 -0.0298380714720601 )
( 13.973134525947671 2.2591504951268893 -0.0444643869294449 )
( 13.6615830715755 2.381167712312785 -0.0567188547855604 )
( 13.318273815152846 2.541148705904797 -0.0676762898696412 )
( 12.961780654207928 2.7162958352390563 -0.0771818680532216 )
( 12.591963242925129 2.906335181336825 -0.0845179983847762 )
( 12.242682592513471 3.092935091372972 -0.0902928562233725 )
( 11.916232712509812 3.259119912366096 -0.0941897548517479 )
( 11.593495999192132 3.410018603642607 -0.0954423475765571 )
( 11.270481193075955 3.550780773947548 -0.0954905981485596 )
( 10.941154600363191 3.7203573906267176 -0.0951109684718713 )
( 10.631492050631785 3.953997193109756 -0.0970094089113802 )
( 10.395281002229162 4.278175675486452 -0.0971331375077524 )
( 10.089570756743573 4.6195192525912265 -0.090777907247833 )
( 15.515736328029291 1.549294032389869 0.0569232752007781 )
( 15.267734946446414 1.6447095284664686 0.032629729818025 )
( 14.970369158293323 1.7809668749969312 0.0082240838664755 )
( 14.721167813553642 1.878767189699937 -0.0093936180701834 )
( 14.452661511713892 1.9754858674354845 -0.0246281365468727 )
( 14.155055632163965 2.0855530846692747 -0.0392303256471858 )
( 13.858545340611098 2.1856126026834413 -0.0525534499928623 )
( 13.539718500091254 2.299367568191488 -0.0641950410772767 )
( 13.184571820484004 2.4520220736092533 -0.0745728514285766 )
( 12.806750431261497 2.623658983710772 -0.083757741021005 )
( 12.419875215184335 2.821885836913499 -0.0905018309094497 )
( 12.060080861004897 3.0150166607899087 -0.0951436627989658 )
( 11.710977564985404 3.1762263366402905 -0.0989972306679608 )
( 11.368314948206388 3.323254501039163 -0.0996790933049736 )
( 11.025792593664114 3.4875224840209818 -0.0977046979386782 )
( 10.689008751090462 3.682344571885671 -0.0974790285580706 )
( 10.396058227857823 3.9520397058159737 -0.1002088726571169 )
( 10.112167543520773 4.300678984174319 -0.0969312017355107 )
( 9.616813204791274 4.553588750890811 -0.0901091065055195 )
( 15.459376679962824 1.4875931367651627 0.0454636290437237 )
( 15.206316471256216 1.58180281628396 0.0220007720106738 )
( 14.904708003529477 1.7110824951117645 -0.0015935314365385 )
( 14.643646056625284 1.7994333378304497 -0.0191183455475159 )
( 14.367357160322657 1.8972192049819363 -0.0340902020496175 )
( 14.064110738069036 2.0105108933267126 -0.0477869831860916 )
( 13.753352842242125 2.1054996070955903 -0.0599149974306179 )
( 13.427750296505282 2.2131946255265027 -0.0707269164814286 )
( 13.054243767044472 2.3647398264312773 -0.0804056311808118 )
( 12.659898322760242 2.5357713800356927 -0.08901806241461 )
( 12.259087005233038 2.732799683695843 -0.0957260200160995 )
( 11.874327069005917 2.9297132176046365 -0.0996319579090844 )
( 11.514816356064037 3.098148204621737 -0.1020369101846161 )
( 11.165890314631357 3.2458814267875047 -0.1017431238617719 )
( 10.803027669795094 3.4261627488833124 -0.1008209369809637 )
( 10.453219017753392 3.651214939573372 -0.1024626720568398 )
( 10.163617286136065 3.9516338569982943 -0.102100579612889 )
( 9.786523359624695 4.295073993792088 -0.0959541400156979 )
( 8.995951151900432 4.387034713670492 -0.0880706093854132 )
( 15.404560385503505 1.4238833664960373 0.0349531781633068 )
( 15.149250122421853 1.5190136573399609 0.0127389394788088 )
( 14.843181731697085 1.6452346576357375 -0.0102425523862147 )
( 14.575972140377193 1.728663158318103 -0.0273398616984675 )
( 14.288368714779557 1.822230951809062 -0.0419477562688192 )
( 13.970343953885678 1.924692864683054 -0.0555895755357088 )
( 13.65011041124678 2.0180854058081747 -0.0671991559465703 )
( 13.318349716248662 2.123131499878949 -0.0776057038290458 )
( 12.91996017185641 2.2743095783451523 -0.0867231109735845 )
( 12.510041505741928 2.452066057491777 -0.0940548801425479 )
( 12.106888967744176 2.6444318299738288 -0.0998806666999473 )
( 11.712231623884634 2.8429717590840338 -0.1027669725213969 )
( 11.339325686214456 3.0209323673262154 -0.1037230307122466 )
( 10.965014702040898 3.174107859882737 -0.1023351172802137 )
( 10.593071091528104 3.361985633124932 -0.1018622607522156 )
( 10.241896493269 3.617295318162113 -0.1040199293636536 )
( 9.90255647186182 3.9455259201073 -0.1022578606215044 )
( 9.44384010673503 4.265934972863797 -0.0973519929162616 )
( 8.175232012119883 4.077898353073048 -0.0828824504947951 )
( 15.354037310996237 1.3666196436206712 0.0258357081411294 )
( 15.0917584956563 1.456872919722095 0.0039189292400955 )
( 14.781837950540114 1.5785737279375611 -0.018666971685864 )
( 14.513308312946563 1.6612122616606593 -0.0346403727071026 )
( 14.21522292581716 1.7478894669764475 -0.0489833595597901 )
( 13.889311927650215 1.8395666920058376 -0.0624498458232002 )
( 13.560430041848438 1.936860392548628 -0.0732179778740118 )
( 13.212303442610732 2.0480937961996264 -0.0831404137962118 )
( 12.794385451211577 2.1915402391390413 -0.0923624771345303 )
( 12.363646041612132 2.369791319110825 -0.0987799871244239 )
( 11.954557631868305 2.5571124093982966 -0.1028625525412899 )
( 11.559421645077968 2.7432275821918037 -0.1051047943212731 )
( 11.16983770380999 2.920510097163403 -0.1054067044433383 )
( 10.771797107181516 3.0897041869445414 -0.1040022145414019 )
( 10.387184176879048 3.296864145251623 -0.1020019270518445 )
( 10.027675983320073 3.577564881585114 -0.1014444321758067 )
( 9.61317432680555 3.918187676048982 -0.0999161649295177 )
( 8.925984342429325 4.127210723815615 -0.0927962683072035 )
( 7.355696960452097 3.731351560637477 -0.0736640294772726 )
( 15.309967039137598 1.306443840928483 0.0175116079684342 )
( 15.041546702123602 1.3952548495610555 -0.0040253674114026 )
( 14.722571748449784 1.5126354698339084 -0.0265055187322161 )
( 14.45001269822224 1.588574049629481 -0.0418412815628578 )
( 14.146689138460564 1.674682516245268 -0.0551275203046196 )
( 13.821031811536391 1.7687576949933657 -0.0683361962684025 )
( 13.488445324943244 1.864518105527451 -0.0785612857666167 )
( 13.11812939678327 1.972186945699668 -0.0877613544639181 )
( 12.688528120338066 2.113055629319719 -0.0969281061164725 )
( 12.249555712601166 2.2885130066120905 -0.1025085107489749 )
( 11.822893691181758 2.472835116456188 -0.1058938807014575 )
( 11.402994613178524 2.649018888636786 -0.1079341090055337 )
( 10.993317201197192 2.818853611033096 -0.1085375143059415 )
( 10.583449099178116 2.998849568096869 -0.1081588755996962 )
( 10.190951032380056 3.233176418500089 -0.1056958117715006 )
( 9.804717408603745 3.548094092644772 -0.1035565553159968 )
( 9.322168980768168 3.877062588814057 -0.0987253897859567 )
( 8.333848302047093 3.9052031140778 -0.0853351367750528 )
( 6.633179426239199 3.400910399592633 -0.0671510427336627 )
( 15.270505115093073 1.2432553820015355 0.0100551025493743 )
( 15.000996938150411 1.3320653210052722 -0.0106662632488823 )
( 14.672234486177192 1.447789694119951 -0.0326424838539187 )
( 14.391050589731174 1.5177437143142811 -0.0475997183554262 )
( 14.080322306778523 1.5990943833757385 -0.0608865904167436 )
( 13.750630156510256 1.6920944655822323 -0.0735313027947036 )
( 13.410992933746428 1.7764033075340966 -0.0838666706201818 )
( 13.028598271874491 1.8818604630972435 -0.0928474072474116 )
( 12.599455196826698 2.0322688530840374 -0.1006420380042156 )
( 12.153482618019634 2.2047914701163083 -0.1057852701243072 )
( 11.704453355535556 2.390032655350573 -0.109802210800441 )
( 11.259108807170827 2.558437448268604 -0.111352346255625 )
( 10.831035005151056 2.722712001707183 -0.1123969222958348 )
( 10.399244422540969 2.915867168503557 -0.112419811797062 )
( 9.994328884114186 3.1677701121783377 -0.1089037342920539 )
( 9.557011086602676 3.500083035879896 -0.1065264997901189 )
( 8.982408264318066 3.7900646725376808 -0.1005105237067793 )
( 7.816492011225495 3.678448059423108 -0.082495113081915 )
( 5.948596741354637 3.055191490936563 -0.0620972225836631 )
( 15.235677366329316 1.188717314122644 0.0036374872709333 )
( 14.962894175072227 1.272343320412132 -0.0165960177391514 )
( 14.627434555512217 1.380925563356395 -0.038318527366902 )
( 14.339124869842443 1.4490833398227152 -0.0531836136176872 )
( 14.021561188089326 1.5229954800293055 -0.0665045323271422 )
( 13.688741412828884 1.6065518109726988 -0.0782784138308831 )