/*--------------------------------*- C++ -*----------------------------------*\
| =========                 |                                                 |
| \\      /  F ield         | OpenFOAM: The Open Source CFD Toolbox           |
|  \\    /   O peration     | Version:  2112                                  |
|   \\  /    A nd           | Website:  www.openfoam.com                      |
|    \\/     M anipulation  |                                                 |
\*---------------------------------------------------------------------------*/
FoamFile
{
    version     2.0;
    format      ascii;
    arch        "LSB;label=32;scalar=64";
    class       volScalarField;
    location    "0.0044";
    object      k_LES;
}
// * * * * * * * * * * * * * * * * * * * * * * * * * * * * * * * * * * * * * // 
 
dimensions      [0 2 -2 0 0 0 0];
 
internalField   nonuniform List<scalar> 
13597
(
0.1622156528303955
0.1600240224794945
0.1583158802272768
0.1588106540076389
0.160718438448818
0.1633516816373993
0.1663121903214158
0.1700410712249714
0.1745739242942488
0.1792814045898006
0.1851979408030812
0.1922770272056428
0.1994999814688365
0.2072822462122288
0.2155718544432562
0.2234060801687208
0.2304281952562323
0.236983621181923
0.2442880643927247
0.1480365988416536
0.1447603420591281
0.1438782357675731
0.1486007011061116
0.1542087688354213
0.1606092270954771
0.1684741777642024
0.1771954984771922
0.1864493807574009
0.1956104181042492
0.2060664488673901
0.2172910317687106
0.227687050111896
0.237997238320495
0.2473096753481765
0.254722617268659
0.2601622142495165
0.264601300520781
0.2689071736812773
0.139648909172172
0.1381774009065716
0.1413402513440395
0.1509992504605495
0.1605523040825549
0.1709789525391415
0.1821090955957595
0.1938126951766934
0.2060469403135022
0.2179877603793278
0.2296043232788279
0.2410307887838544
0.2513397711334513
0.2596575713762238
0.2655838816568114
0.2694598649644677
0.2715424465492269
0.2722551950359689
0.2716154744333554
0.1393342713687231
0.1409010616412941
0.1470415654740793
0.1596795774474249
0.1722602202853309
0.1849861644826041
0.198276950966151
0.212200656174507
0.2259300477991518
0.2392882399273758
0.2506571498621353
0.260225561715937
0.2672497698683814
0.2716702894854281
0.2738735115950069
0.2740878793888681
0.2726984623232527
0.2703516269654945
0.2666821716616042
0.1442619026379172
0.1472587091154916
0.1553879182068057
0.1702290953328785
0.184710134456177
0.1996169483306974
0.2152587485121411
0.2310587446518908
0.2451625310601913
0.257464276466411
0.2677871569586796
0.2752343194799461
0.2792216522834551
0.2806835220117622
0.2802869710785968
0.2782836937625412
0.2745414273038195
0.2699213859279953
0.2638449246804935
0.1502782648963483
0.1533791450332214
0.1635529670750846
0.1809827466333228
0.1971544480050248
0.2144861696025273
0.2320879197965004
0.2485868536155694
0.2630322896223954
0.274739352198234
0.2830479758256224
0.287304534924799
0.287937193779046
0.2857491740826055
0.2821663452584333
0.2775714643831246
0.2718197623057027
0.2651392789844742
0.2573011140580947
0.1551394491171193
0.1589800775403329
0.1719498862317064
0.191932305528437
0.2106058404488567
0.2300710675434312
0.2488362678587589
0.2650609102772674
0.2785721569366254
0.2877684191624561
0.2920117133010885
0.2922884538138896
0.2891592087306163
0.2837016207517646
0.2771635970895811
0.2706688378333562
0.2638896604524198
0.2564819895061834
0.2486958353001952
0.1598036925357601
0.1646493092922749
0.1811371462915948
0.2039381007701753
0.2248931166217306
0.2455035481497079
0.2642657998877259
0.2789692816817403
0.289442622435635
0.294150551227023
0.2936138133933506
0.2899916774015297
0.2839734657917093
0.2766092856298426
0.2691183852653544
0.2623322431163233
0.2558055416239702
0.2492640902367156
0.242987424872217
0.1642221342428917
0.1711959696365418
0.1912724494295474
0.2160752680453102
0.2385239579831645
0.2591807444162894
0.2754998817222512
0.2871129069789818
0.2936670618172071
0.2942211524139911
0.2898772954267195
0.2835378451306341
0.2762104817256486
0.2686780753201502
0.2620626943846709
0.2562019776045655
0.2510425733369503
0.2465273470800911
0.2425986007981657
0.1697524478706349
0.179936523169855
0.2024177227898664
0.2277789218096464
0.2508181373483178
0.2694601439496302
0.2819613900111054
0.2895328186028436
0.291744234417057
0.2891866043285038
0.283411821610075
0.276472895378111
0.2694458847162
0.2630889521005425
0.2581208861632764
0.2542657495682315
0.2514843174416179
0.249663048562512
0.2487095521329229
0.1767605363546221
0.1890361064039985
0.2133691880809394
0.2381797624481476
0.259312395607463
0.274821780025542
0.2841544846017541
0.2882002443993992
0.2870244785477371
0.2827998687756302
0.2767308902941305
0.27031375073832
0.2649163718987223
0.2605860361708703
0.2579049128681587
0.2569007749683301
0.2572494488675542
0.2584785009130595
0.2610777110849216
0.184841599121227
0.1986290019712886
0.2240002371491192
0.2468626607275118
0.2645532089780121
0.2767872438184977
0.2830249503258071
0.2842016315651509
0.2809618311446526
0.2762163831006139
0.2709822751683824
0.2663314007324421
0.263111590448474
0.2613233900787721
0.2617338664731019
0.2638779458597883
0.2673923216044537
0.2722914622169032
0.278736009681658
0.1937923350258644
0.2084421249301841
0.2327794477387107
0.2532799498091061
0.2678463634486037
0.2761193084123302
0.2792152047636123
0.2785960009059566
0.2754696217924805
0.2710593152668439
0.2672973033056572
0.2651807688089044
0.2644769038206002
0.2658182188655249
0.2695024349901871
0.2748435481531165
0.2820207398691489
0.2909771057388006
0.3002996983195379
0.203752365148655
0.2172110749143971
0.2384078500222134
0.255878857813327
0.2672360985749699
0.2723790792499439
0.2739321189735295
0.2731955774202868
0.2710292354906642
0.2679108943711825
0.2658091193221086
0.2662852718353296
0.2687214575978799
0.2734562854239711
0.2805811439742323
0.2896685722798479
0.3007988791833945
0.3130736095870123
0.3255963296550144
0.2127954373304255
0.2235483467218378
0.2426948966720573
0.2557896324524892
0.264260153060654
0.2680146633700315
0.268434998794696
0.2681050575545459
0.2670214339180116
0.2659334437413666
0.2662848416070655
0.2697097439624883
0.2759627923568382
0.284056809207021
0.2947579691298128
0.3077128978535748
0.3224896696788792
0.3385236399141471
0.3583805523316171
0.2194669894574104
0.2272749316074026
0.2438549759953259
0.253494576626815
0.2593562525223542
0.2627728575114989
0.2636405929467403
0.2636858827573768
0.2640503280568824
0.265140346979862
0.2687436063656885
0.2757195934354512
0.2853398923866209
0.2970049632934344
0.3112040895418034
0.3275252684872539
0.3464488422196791
0.3700497168813095
0.4041367350514199
0.2234623995741896
0.2294066751090606
0.2424730182592934
0.2499032610667071
0.2540845614363569
0.2570885045593367
0.2589553645795193
0.2603095470254852
0.2621896149492934
0.2658264237862378
0.2724461747210983
0.2826588207429785
0.2957954216536981
0.3110054784889798
0.3287611654299506
0.3495320926114185
0.3749726655912581
0.411232090194396
0.4598707380932827
0.2260462361573341
0.2295603880765695
0.2396859123517345
0.2453522423707708
0.249059345309337
0.2523731066360329
0.2547345354713661
0.2574140108689837
0.2614472033548366
0.267737660688179
0.2772435325792393
0.2908260346631245
0.3075966491837472
0.3265153418245844
0.3481265806015902
0.3739078662777531
0.4103201235782521
0.4615413363630317
0.5093885325002799
0.2276869658375887
0.2282595041810352
0.235858446458943
0.2404212785597881
0.2441251861908029
0.2479981939813693
0.2511224328994166
0.2549010091340373
0.2611170924235469
0.2703157722636846
0.2835256262525909
0.3003149352028344
0.3204640515924475
0.3436947338901819
0.3696126780142278
0.4031459610615983
0.4539215362847655
0.5180055101871576
0.5489210236183394
0.2272028880597686
0.2252898298539653
0.2312274825452674
0.2352577664769759
0.2391899122876648
0.2436457372768093
0.2480904355220058
0.2535754454457359
0.261892515201895
0.2738087148446063
0.290570053669317
0.3104987930908584
0.3339863955282375
0.3608186548271913
0.3937316663055132
0.4381602559737578
0.503479038043638
0.5734201801665386
0.5760032754562951
0.2255581403112252
0.2217589593503222
0.2258572242350449
0.2292601405754991
0.2337140423190316
0.2392645104523954
0.2457469233615238
0.2529677504179238
0.26326438447833
0.2775149867096642
0.2976452637839087
0.3217943511893238
0.3485235556887988
0.3781911689763504
0.41917775553236
0.4784009380908831
0.5574197886134771
0.6232784512446727
0.5746303139851433
0.2231647310825826
0.2176751474210329
0.2206326231165316
0.2239746611249947
0.2290203847112711
0.2356086424479094
0.2437304620095053
0.2523950347202029
0.2648030573831492
0.2819914212015115
0.3050130218269739
0.3319058983079288
0.3618656495791311
0.3973862975075483
0.4467434596505343
0.5219880791506155
0.6118328003032834
0.6643949039034114
0.5350527880078211
0.219527515143454
0.2129278815461164
0.2154974102704778
0.2193074521741731
0.2249780164636764
0.2327569689148077
0.2425065284626244
0.2528891447428648
0.2673708086366639
0.2876712086303266
0.3130960303110836
0.3421301770554152
0.3752254301469052
0.4173440782700292
0.4798295709820342
0.5701751699416998
0.6651833095294847
0.6772363433021084
0.4900441546825938
0.2154607492826136
0.208300974350962
0.2110174929246776
0.215263405031936
0.2214627237878896
0.2301730087427969
0.2412047297615976
0.2534775774401455
0.2701429342505687
0.2927408405133108
0.3206609036697037
0.3537953804110915
0.3906626805996858
0.4394584490413595
0.5161543561436631
0.6199977063866884
0.7140294830575299
0.6684167653157884
0.4489454917681199
0.2115545222973329
0.2038577162753153
0.2070041605822926
0.2117942750906863
0.2181666441489028
0.2278946599423877
0.2399401371004225
0.253940595548683
0.272604931618473
0.2969694245839071
0.3281078695118069
0.364887351730928
0.4055007877914469
0.4650310530230238
0.5531113487497966
0.6654913135075339
0.7482850983609761
0.6535886802059578
0.4017608471392072
0.2082311576417206
0.2000019850035691
0.2027584327523461
0.2081353628145922
0.2151203716217967
0.2258666732410222
0.2392338055756462
0.2549273451053815
0.2751845208988582
0.3018785856680145
0.3356455073163468
0.3748247877122267
0.4205679939538466
0.4901535466419305
0.5888786542629112
0.7083940091997811
0.7581477093993412
0.621289628015624
0.3659787635447309
0.2050416682303141
0.1965702851194013
0.1985178345679763
0.2042842694642023
0.2123459312634369
0.2241299304216855
0.2389110424809975
0.2561499655602585
0.2780711192099997
0.3073505785166935
0.3430301159450111
0.3839491377582094
0.4354890748575734
0.5132849552968962
0.6247664977642975
0.7465419181249175
0.7600822326905051
0.5852906943349224
0.3363754982732694
0.2013106443232767
0.192786197187609
0.1951490723004811
0.2013329460057599
0.2100224130309866
0.2228359225470293
0.2387639589641751
0.2571272847824647
0.2806588717939439
0.3127557955981344
0.3508163210552081
0.3929975799229772
0.4495144604083366
0.5362091224289597
0.663089762791691
0.7829007441025497
0.7709108343251632
0.5606945005576566
0.3107809244550433
0.1973019429303685
0.1890725432215286
0.1918879682190238
0.1986127503200208
0.2078585897674708
0.2213441808423876
0.2381497578587207
0.2577552274795525
0.2833466111575178
0.3177650437656787
0.3571973635945438
0.4024987609903269
0.467587590094092
0.560751407804818
0.6958706620016653
0.8095670933009119
0.7713816277191841
0.5389838413091982
0.294537993127085
0.1940635902442025
0.1857071062397877
0.1885586955875216
0.1957178253246428
0.205792414771143
0.2201886547132029
0.237544213170819
0.2585372118142968
0.2862435300255411
0.3213043851375934
0.3616623255080789
0.4120951313565709
0.4836332919157881
0.5847235262725221
0.7237740268573388
0.8064962474681363
0.74252743771258
0.518134534616235
0.2853983152691625
0.1913728007140658
0.1827111062374528
0.1858061306871304
0.1933194769062152
0.2040470469785854
0.2193121646179291
0.2373023804804289
0.2600907586058543
0.289256268149425
0.3245776586307096
0.3665364774598508
0.4215059743159385
0.494985804741809
0.6055196319612183
0.7492958878526708
0.8003540527593586
0.7123785303748863
0.4987143241407789
0.279039954899094
0.1887807971599073
0.1804834846865322
0.1838094109230357
0.1917273494705793
0.2026424309085617
0.2180592577119934
0.2374301831046678
0.2620369399679054
0.2922293277778505
0.328578919628766
0.3719399083881816
0.4298806824572286
0.5072017662207237
0.6299150104744808
0.7728758050975304
0.8083506871724946
0.7038459560061051
0.4818682040640692
0.2704357497906098
0.1865517465229347
0.1787006603528212
0.1817086923011242
0.1902370897590901
0.2016349630328727
0.2169303960115292
0.2371803425494815
0.2630421788238044
0.2946543149065088
0.3327437419322823
0.3774382259400487
0.4376681191959309
0.5185780377450362
0.6504539412719671
0.7953545821287837
0.8208759380273815
0.703578418238272
0.4706140305388915
0.2609167799195491
0.1844679774416326
0.176718812356472
0.1794431376601182
0.1883989150622162
0.2006495576991373
0.2164008357200875
0.2366391284970732
0.2632563924303518
0.2965905522223029
0.3368352617278476
0.3836479636037743
0.4451925928103693
0.528227758180071
0.6646077785982255
0.8144064882307236
0.8347200757352314
0.7055304675157895
0.4640078793113638
0.2554430465508214
0.1826953060632102
0.1749579909276722
0.1778679981114226
0.1866058961481954
0.1996911493482007
0.2161256044560177
0.2364672392859136
0.2635879780712231
0.2980016987628022
0.3398513399144652
0.3886808295933509
0.4516066193688738
0.5385704673703736
0.6792322580140523
0.8271583289889136
0.8404389753188097
0.7034333639308703
0.4579829232083429
0.2520611952861993
0.1814336385308794
0.1735777703972978
0.1764375497069112
0.1850641926601109
0.1987358550153012
0.2155626819601828
0.2360672324938753
0.2639874416962169
0.2994834467294233
0.3420005088121681
0.3922635106923309
0.4573278809357202
0.5480461896256443
0.690172412371984
0.8370216757391666
0.8450318009038603
0.6992874569661741
0.4511252454131839
0.247885829224772
0.1804680032898187
0.1723532006930387
0.1752617616538408
0.1836397681644277
0.1976648888714249
0.2153363070070694
0.2364199178639749
0.2647157250474332
0.3010263381703931
0.34449961852303
0.3959599358463633
0.46305763374471
0.5560888403064754
0.6996939011375561
0.8455873589874846
0.8473725680698813
0.6988927408654791
0.4493692655084725
0.2443129679244121
0.1795094859699378
0.170987983204386
0.1740554357914775
0.1823943999566878
0.1964791267337162
0.2147181935588125
0.2369400950524982
0.2655666426157303
0.3024407465268208
0.3465504313741123
0.3990203118859052
0.4678705930130449
0.5656397967526251
0.7105192549220946
0.8492965061459395
0.847039028656725
0.6959458056727696
0.4479817757326268
0.2424334757609252
0.1784797454696582
0.1695414084152768
0.1725946250955143
0.1817236638346566
0.1959047164923093
0.2140025792365788
0.2366680171448654
0.2658491018833801
0.3038505824938591
0.3480996367509506
0.4012534657481288
0.4715388166539225
0.5752612629624095
0.7233106722394484
0.8511957083277364
0.843975826724719
0.6896214835566586
0.4435391058741483
0.2417570062808602
0.177608562313401
0.1684416831584004
0.1713553090367718
0.1811233077155777
0.1956421496478306
0.2137112398423709
0.2362318760267592
0.2655910033607543
0.3044116696007501
0.348856137067068
0.4027341813857085
0.4744986870316855
0.5805977196016222
0.7323424136321722
0.8535751635201662
0.8387739447947614
0.6857480115345888
0.4408969720559579
0.2414684932032901
0.1770717273154209
0.1677934757528207
0.1705016035352566
0.1803818106402843
0.1950834602997664
0.2132575237612931
0.2357829809814636
0.2654593392654096
0.3048424920643879
0.3502555544667683
0.4046900984156465
0.4781103275185387
0.5854301819252785
0.7372557358340712
0.8531115178800165
0.8319257439694471
0.6798320817182985
0.4374964614513303
0.2413445049682449
0.1767830528668015
0.167392846841427
0.170133051792273
0.1799539584067218
0.1942550382525954
0.2127176590441711
0.2355695540730958
0.2656658324592844
0.3060073174774023
0.3528768701933518
0.4074132793956644
0.4816625019637164
0.5897528785477976
0.7391429475312273
0.8521898256742336
0.8282964330988587
0.6730667640161784
0.4323751951209991
0.2404176797298694
0.1765498156313928
0.1670839970309492
0.1696777397465326
0.1792542169720769
0.193613320199771
0.2124057798785679
0.2355298410969933
0.2656090186675677
0.3062161874623961
0.3541928278415123
0.4093228601675102
0.4832633010892741
0.5895419717022534
0.740372004595019
0.8556313948006327
0.8272133379744678
0.6671010681612739
0.4274905868237643
0.2378638908242961
0.1764166212235432
0.1668531773322698
0.1689920185985477
0.1783248144129904
0.1932952169953055
0.2121699262158532
0.2352740413178415
0.2653690527246821
0.3063507524417963
0.3554915263285028
0.4111861789115159
0.4853165534676774
0.5907189045483625
0.7428498199397686
0.8535923888774201
0.8201661137177321
0.6619001159668962
0.4247896318059257
0.2366438423751531
0.2232525328010539
0.224340417253198
0.2250954946476609
0.2245447720331586
0.2231143493513573
0.2203229563767122
0.2165857121194493
0.2123874043867935
0.2090002469045723
0.2061002433648575
0.2031056138372296
0.2012246276524201
0.1995199886031329
0.1981872260982682
0.1982346665875306
0.198944679095537
0.2005298013117694
0.2029081993549342
0.2059582916939788
0.234476474507785
0.2377941882409724
0.2393373753262829
0.2399285062201044
0.2385025613365289
0.2354926341857907
0.2317042674726893
0.2267484277610098
0.2215139610997852
0.2167015790423194
0.2123945477624035
0.2097630336557593
0.2087674604376518
0.2085272185391532
0.2098931111895633
0.2127191004276781
0.2166765706880679
0.2216704877423466
0.2266371828681611
0.2416780582874283
0.2448841375389091
0.2452932584582069
0.2444602793339916
0.2407073417389026
0.2356414418401551
0.2297546185276827
0.2233504119259482
0.2177910991337643
0.2135387664203725
0.2110029939644197
0.2104119333777436
0.2128490517919068
0.2176885592448117
0.2235822825058869
0.230643352527835
0.2371548327509392
0.2436144558734515
0.2504639145751766
0.2459557048695123
0.2473504668978516
0.2450887989081542
0.2414088254058373
0.2348993799167048
0.2281370595537427
0.2217075331059133
0.2162004622875022
0.2122673227338036
0.2102310742433498
0.2117547478124447
0.2155570411957832
0.2223238442578043
0.2312251265599611
0.2395953602915733
0.2479188994849355
0.2554935297841774
0.2627803576417716
0.270832297559711
0.2468704683873174
0.2460656548943106
0.2413652388804853
0.2358090429947295
0.227742589120711
0.2203565676391891
0.215203850677083
0.2114635018862138
0.2100933368055029
0.2116604006574525
0.2169647366606558
0.2247199194892007
0.2343603255607923
0.2448700704599591
0.2541764811185062
0.2631232237704544
0.2715817819691644
0.2795638460207272
0.2879430927004622
0.2461842647385773
0.2430569987700421
0.2362233474134459
0.2294891341480496
0.2215507844393912
0.2155075790178161
0.2117063300930601
0.2098097872113588
0.2111356877053803
0.2155494548681034
0.2234703640297365
0.2336062212009381
0.2447897953117348
0.2559102993951241
0.2660603085531108
0.2749418755779934
0.2823459466450916
0.2894113657294694
0.2969422330927029
0.2458298528620128
0.2398411571883458
0.2308945852333717
0.2242323520232548
0.2180148742799819
0.2132713903856563
0.2107446166214654
0.2103467183683852
0.2131750055836575
0.2195728628138046
0.2292100305897886
0.2408068628881812
0.2528260224582073
0.2639989121337123
0.2738677451935254
0.2820066115594361
0.2885702720451359
0.294668951500678
0.3006012988046341
0.2444252637039797
0.2365938288039261
0.2272297829289464
0.2207888450225431
0.2157745203346981
0.2118805040699567
0.2102254163672592
0.2108541422571378
0.2150225478615322
0.2228734767254705
0.2335415481871379
0.2464003596286021
0.2589249698284305
0.2697639539738779
0.2786860641360223
0.2861749284419355
0.2921850334497665
0.2976046232563624
0.302608126778561
0.2437931549063081
0.2349048579814186
0.2251157073604904
0.2188361091426471
0.2138679575408318
0.2103195985308729
0.2092483782754677
0.2113954105148626
0.2170985176659112
0.2261608230752942
0.238002293486475
0.2512249977040235
0.2636933197077973
0.2741360710324836
0.2825091506197253
0.2894916365195528
0.2953258000506369
0.3006087564058848
0.3052136507349482
0.2429108977150844
0.2335434060228028
0.2236708030399249
0.2171518667015063
0.2118949322390116
0.2087093423378197
0.2084280816478513
0.2117944725551429
0.2186473424897706
0.2294022049507671
0.2421803153120041
0.2552134185664169
0.267711167522749
0.2779642031548164
0.2863251271036569
0.2932922159704061
0.2996331580782811
0.3053219065635096
0.3099896569530097
0.2413381483261082
0.2322216385206112
0.2223491629449134
0.2153756126269363
0.2098483801828894
0.2070483053002681
0.2074459940854324
0.2117757849633501
0.2199757230283955
0.2317897983902564
0.2454835843827691
0.2591286134774053
0.2718805581111953
0.282581726382782
0.2914242814749435
0.2988746171810637
0.3059322842717569
0.3120850280937784
0.3172107671897414
0.2410490400387011
0.2315933716095934
0.2210059165966005
0.2132779460319692
0.2072659935057723
0.2050249382245821
0.2063081959539378
0.211680376674518
0.2214210059016772
0.234151911060422
0.2493602224736133
0.2640558092574205
0.2768524853790199
0.2882276050510359
0.2979648726437108
0.3063176800958744
0.3142189636389849
0.3215102344852207
0.3278963826220289
0.2409703162474786
0.2303883793579979
0.2189512967603434
0.2105673020897923
0.2047343617867791
0.2029724568380592
0.205166687986907
0.2116346785451792
0.2229052662114881
0.2372297099013118
0.2535860611796261
0.2695848968922097
0.2830766999578497
0.2948660061919899
0.3057489287920908
0.3156030502960831
0.3250546686429272
0.3344368067866827
0.3431650040592753
0.2408665072535668
0.2288107121779411
0.2163463124917718
0.20748617993103
0.202269861349584
0.200627815592985
0.203712898712095
0.2121150248779524
0.225267733347915
0.2411925147394798
0.2583678215799952
0.2751575220901859
0.2901871444440846
0.3028881597394068
0.3151389448911212
0.3275354190770823
0.3391854850608146
0.3508492442765513
0.3628176002053581
0.2415700072115042
0.2273167315060215
0.2131321588405633
0.2043116265434655
0.199198446655443
0.1981106803597703
0.2028057463717729
0.213037685922095
0.2278489269460156
0.2452211697833787
0.2631876735275427
0.2809718543273611
0.2978144293895038
0.3125359901170103
0.3265413886781446
0.3414750874425905
0.3562468397491056
0.3715529999287082
0.3912063046172075
0.2417793192745342
0.2251364361540318
0.2098774909858174
0.2010684877260797
0.1961723167335695
0.1962482643980435
0.2026932626381599
0.2145268845827112
0.2301785027171318
0.2491166615384434
0.2685068027993836
0.2878861213149404
0.3063704752694077
0.3235079539732935
0.3401580345724782
0.3571842050162844
0.37601434906828
0.3991139045072095
0.4315689219317956
0.2404974866902161
0.221917252322198
0.2064032812952196
0.197844122638837
0.1937152554309484
0.1949185069704608
0.202903011669583
0.2164869546851827
0.2336329430990265
0.2538493908455818
0.2744925185221082
0.2954281267199394
0.3155704300693474
0.3352408619732481
0.3550426938660567
0.3756055867538893
0.4002952657107194
0.4352072382654436
0.4786941812614468
0.2380282561510034
0.2178768638652749
0.202129065104434
0.1943701262042581
0.1912826994065549
0.1940688203004521
0.2037508586576328
0.2187410681730257
0.2378527006829563
0.2588690880759584
0.2806494871993601
0.3039887189322452
0.3261523376308343
0.3484789554754171
0.3714066247745735
0.3975801581123201
0.4321540387607361
0.4819720847299777
0.5262983051895519
0.2347445112489264
0.2135014429375429
0.1981068089559464
0.1906828254584514
0.1886174499142097
0.1931306111825173
0.2046966635919463
0.2214437001565239
0.2416955963829247
0.2636136025730202
0.2873465430364239
0.3128553253370996
0.3376224447049273
0.3629052930006853
0.3899077523562388
0.424273741311195
0.4718448535134797
0.5325806421434813
0.5598000356502281
0.2308454372517028
0.2095438122461279
0.1943974103885917
0.187458233649477
0.1865885123011649
0.1923324692199256
0.2052834109673012
0.2237465170052455
0.2454312415934573
0.2688421798942045
0.2948437912564844
0.3221669631159575
0.3499690432288815
0.3790883798758859
0.4113254673985814
0.4545667696102027
0.5174277277267058
0.5791550615405464
0.5772933904470393
0.2272839842591566
0.2066449903418037
0.1909274400596905
0.1845998577086899
0.185258374110307
0.1922653886125574
0.2066008900486872
0.2263508872491088
0.2488317104562622
0.2737606597471379
0.3023795912874447
0.3327910141643954
0.3632732814668299
0.3963418823987287
0.4356924292849333
0.4901798885511266
0.5654971422738669
0.6222358690116382
0.5752871331747065
0.2241080462068537
0.2029452424375026
0.1874322733389507
0.181960312640785
0.1838535882204178
0.1924003432429754
0.208043369176379
0.2289355604311396
0.2523694952876017
0.2789923579851439
0.309486316229307
0.342662915131801
0.3766568240195117
0.4139764588084463
0.4603709486112322
0.5307646147554164
0.6179872136594574
0.6652217509154748
0.5360999460024397
0.2210050419440051
0.198797629802251
0.1842020191264946
0.1797730570273458
0.1825723760673979
0.1927421010945904
0.2096234868844425
0.2311757289824327
0.256308389302841
0.2848850818650752
0.3169709930309152
0.3532039602324393
0.3916482106569094
0.4339176150504992
0.4909852217335964
0.5770667704636488
0.6688354786992904
0.6716312842077369
0.4850118623615274
0.2174903565543578
0.195117251818618
0.1812996864078714
0.1778321732245718
0.1820688093378717
0.1934785874402026
0.2111794563004496
0.2332354450572193
0.2596581115306635
0.2906915743228951
0.3250543789486846
0.3641107748743498
0.4063847120175011
0.4549943590678634
0.5252287582141384
0.6245663785314758
0.7090996839662694
0.6522290204112147
0.4440065302081935
0.213159708078829
0.1911199736249555
0.1784630090715587
0.1761111719241486
0.1818068216674636
0.1942817915235806
0.2123829924883349
0.2353281150831097
0.2632498146295747
0.2967445738378511
0.3340014833820307
0.3753300053999783
0.4212302196224731
0.4788183762233636
0.5602376240076762
0.6649406612705079
0.7346610605693034
0.6401190448127768
0.4040294808415228
0.2090133179398426
0.1871781789151764
0.1755691125020462
0.1746376713046092
0.1815388438346214
0.1951367349621959
0.2141182960307439
0.2381610515966882
0.2676672085419123
0.3026432810658904
0.3421151103534707
0.3866113611394528
0.4353724470046298
0.5012013861073773
0.594868730320377
0.7010078924238058
0.7347673809339845
0.6053492604557991
0.366859601628414
0.20537176206514
0.1837412806653455
0.1729693635508771
0.1734378104444153
0.1814425915657459
0.1958931456722163
0.216042622900497
0.2410124669793908
0.2714221060764612
0.3075178839699495
0.3496751223138135
0.397606058225311
0.4497947677952049
0.5213984772001314
0.6261151907188666
0.7358848958375324
0.7382392757177013
0.5721707609806961
0.3352643817138641
0.2014901089294235
0.1805658845238106
0.1709157205273567
0.1727403682740267
0.1816070153452154
0.1968368271777615
0.2177694232537281
0.2431956274259922
0.2742879472543376
0.3119115365622915
0.3570113584165965
0.4070218540524862
0.4651894390656166
0.5450716437918034
0.6602742243333336
0.7731913174960455
0.7544330370894773
0.555865357422368
0.3145024723826533
0.1980759155079672
0.1780682244371836
0.1696989513292918
0.1723737333136898
0.1818815420543048
0.1978757640885901
0.2192045758105832
0.2455137938841573
0.2776500120816247
0.316970283183393
0.3633489464824698
0.415464576822332
0.4801986238186344
0.5681780032467671
0.6897711020802323
0.7924493482928792
0.7520717481303008
0.5378225953097973
0.3007814787076254
0.1948580723809828
0.1758847474906902
0.1686794939334559
0.1720275148777491
0.1819294218076783
0.1986933701739928
0.2207072827059914
0.2480671996322817
0.2806623843273326
0.3211621639804718
0.3696191723413973
0.4257610873917057
0.4959441312749648
0.5872718719226387
0.7130770266481684
0.7908159929140212
0.7225001365086144
0.5101625837588531
0.2866668098003
0.1916334195468177
0.1738623011542126
0.1675677184410728
0.1717845111031412
0.1822393191480976
0.1994002541059757
0.2221286335798608
0.2507037632472598
0.2836624882282051
0.3247801840564682
0.3752032431777266
0.4340901946034013
0.506407327631487
0.6036530471565531
0.7385051942577803
0.7916422783709138
0.6943692513097436
0.4840577745739441
0.2740874593440308
0.1892548076384377
0.1720970575984372
0.1668779784450931
0.1717072280801535
0.1827980221500536
0.2002370304974144
0.2234577545694182
0.2529411689754718
0.2870875592150698
0.3295488729196154
0.3809299221977238
0.4412385777135011
0.5156754587261559
0.6216666432498227
0.762219942198966
0.8018163577208304
0.6875327871806933
0.4675380641146599
0.2634893935467376
0.1871824284243162
0.1702898748976563
0.1664739219177021
0.1718824872827298
0.1835769289078198
0.2013637884332265
0.2248049716303625
0.2544272966809405
0.2896716154019804
0.3341204657934049
0.3872498899656749
0.4492001267019413
0.526974787622849
0.6419906752734097
0.7832585264571168
0.8163480102437084
0.6894835593668168
0.4569608027043569
0.2589175139179157
0.1850426752030553
0.1689213593854921
0.1661112465908886
0.1723712188850914
0.1847539060267269
0.202809701033142
0.226126687670562
0.2557560319277148
0.2919061238562075
0.3371336814329487
0.3906872543160461
0.4548734478490697
0.5354991500816113
0.658974177518084
0.7992952411468378
0.8243305049054082
0.691387135260569
0.4494816741713979
0.253889947919163
0.1832392292415751
0.1680667662188004
0.1658823374030267
0.1728764874186468
0.185976003681966
0.2045897216340146
0.2276037207480994
0.2570323615308938
0.2945548840091956
0.3400924912760932
0.3935052839258076
0.4601374784012317
0.5419479509851144
0.6702713373143351
0.811287965776784
0.8319950976020049
0.6924837877874416
0.4419586992043557
0.2470449358016387
0.1817851276840493
0.1673681239379273
0.1657797066736515
0.1733940127973273
0.1871331408794526
0.2060092967558998
0.2287904206210621
0.2586403676660065
0.2971334928528177
0.3429660202879576
0.3978795425450149
0.4654614107855687
0.5471078310464338
0.6813576214247563
0.8270335234443621
0.841349540352094
0.6897894951936128
0.436968465808508
0.2444822408888643
0.1805627818624105
0.1668768577639555
0.1657114114090808
0.1737608945241842
0.187654889450426
0.2069478082377367
0.2298765529976242
0.2603819348548192
0.2995190113988368
0.3453441063064784
0.4005363653292956
0.4692689987355211
0.5540435262158705
0.6927724711683009
0.8393191230672565
0.8467997982576204
0.6875467022103481
0.4357783244825742
0.2446695636460201