/*--------------------------------*- C++ -*----------------------------------*\
| =========                 |                                                 |
| \\      /  F ield         | OpenFOAM: The Open Source CFD Toolbox           |
|  \\    /   O peration     | Version:  2112                                  |
|   \\  /    A nd           | Website:  www.openfoam.com                      |
|    \\/     M anipulation  |                                                 |
\*---------------------------------------------------------------------------*/
FoamFile
{
    version     2.0;
    format      ascii;
    arch        "LSB;label=32;scalar=64";
    class       volVectorField;
    location    "0.0044";
    object      U_LES;
}
// * * * * * * * * * * * * * * * * * * * * * * * * * * * * * * * * * * * * * // 
 
dimensions      [0 1 -1 0 0 0 0];
 
internalField   nonuniform List<vector> 
13597
(
( 17.192741374246374 1.7025601931301475 0.0092340523820156 )
( 17.19360277504516 1.7489158926110218 0.0098638246560166 )
( 17.20504438438223 1.8418059366331916 0.0128114266938876 )
( 17.22492651023877 1.9592574011588848 0.0181283234726417 )
( 17.242582043374473 2.056101902319752 0.0243835394082424 )
( 17.253347892878423 2.1325471028303227 0.0302503563415154 )
( 17.26640341563036 2.206593410960702 0.0368367894919937 )
( 17.28199938441485 2.2846210766088 0.0446366130276858 )
( 17.29933384169168 2.361748301593832 0.0521986859711022 )
( 17.317375985707592 2.438387266633244 0.0595333080574712 )
( 17.335256280445407 2.5229319191295247 0.0667738871280328 )
( 17.357178376703402 2.606703016246972 0.0722653799905247 )
( 17.38164560034755 2.6886411351431003 0.0766749512002453 )
( 17.4056807790025 2.776262063810203 0.0803664102064843 )
( 17.429425212464853 2.8672183574213377 0.0823412166633683 )
( 17.456535773098768 2.957420098420138 0.0833565149947891 )
( 17.4874704344779 3.04443011019761 0.0834301092446471 )
( 17.519100754912152 3.131605498282202 0.0819431909003249 )
( 17.551977881882124 3.222765142413259 0.0788880956115387 )
( 17.08646734016743 1.740572192790808 -0.0030145303146631 )
( 17.07203486600969 1.799736973992388 -0.0030109590321486 )
( 17.061399960163445 1.9186519675874012 0.0004993130784725 )
( 17.05073915284275 2.049841130238504 0.0062428804689652 )
( 17.037443422652803 2.146587250628344 0.0131052468829717 )
( 17.021236349169218 2.233628299413336 0.0205865855259213 )
( 17.00702454269167 2.319203685270102 0.028323430546435 )
( 16.99230302403785 2.4074232610191912 0.0362961916833796 )
( 16.98008275145656 2.49675945257799 0.0435523832694068 )
( 16.967137403985475 2.585235182633612 0.0499957130479828 )
( 16.95181493589679 2.6832608983814734 0.0556253916485699 )
( 16.935530660217868 2.78819190571629 0.0586171363818262 )
( 16.917980796323867 2.894509648226829 0.0597602729857015 )
( 16.903727555059092 3.005074234179025 0.0593235920051601 )
( 16.89337020018894 3.1154709375055183 0.056662112539828 )
( 16.887551063269314 3.2213673063534776 0.053275112492433 )
( 16.884572734051183 3.319720467724734 0.0493814841949906 )
( 16.88158481177319 3.421337308355279 0.0441187883644407 )
( 16.884853147348807 3.523475614373965 0.0382054309529422 )
( 16.97703600323796 1.769662300161512 -0.0139917869471475 )
( 16.94091613459963 1.8363666574414284 -0.0146186060456647 )
( 16.899553290886544 1.9679959945875976 -0.0101941671362727 )
( 16.852246355710633 2.1033382994878527 -0.0030040358561817 )
( 16.804394038324954 2.1979689393800537 0.0044428415661513 )
( 16.759748051061283 2.28973097716779 0.0127016695056998 )
( 16.716233015055355 2.383074915698309 0.0205034897658852 )
( 16.667458896397005 2.476675779049424 0.0265669038478446 )
( 16.621127910708708 2.575393953652658 0.0311472897983774 )
( 16.57564527339774 2.6829343419251006 0.0343342152700835 )
( 16.528305394407607 2.797474650606262 0.0352388448759367 )
( 16.48149183668957 2.9235878695481308 0.0332286176730685 )
( 16.43681068473574 3.056420481200405 0.029142112927459 )
( 16.39803862975623 3.185595368262282 0.0236453797866402 )
( 16.366580835971142 3.3059361696260905 0.0169799232137766 )
( 16.341518649865925 3.4150446080180443 0.0102042059173309 )
( 16.31719281958175 3.5143912706850515 0.0034435389939473 )
( 16.2935740023691 3.6151846871799656 -0.0038865961126778 )
( 16.279564565965643 3.7212516752331446 -0.0108543051258664 )
( 16.855988047300244 1.7844175524852135 -0.0239418004504636 )
( 16.79396024525458 1.8543395935854916 -0.0246329140013929 )
( 16.720898628930502 1.9866507540240643 -0.0183443210927258 )
( 16.63732468784814 2.1199104955867245 -0.0091728936463703 )
( 16.553763854281765 2.2149103137611243 -0.0017751182565162 )
( 16.476373318495998 2.307077341874277 0.0051528375673084 )
( 16.396885245750596 2.4056324998510314 0.0104061733077592 )
( 16.314756520211947 2.507575562506738 0.0130906377077846 )
( 16.240611077803223 2.617319510091904 0.0135844181500584 )
( 16.169857997562925 2.739334431479901 0.0117138538503819 )
( 16.097017063647353 2.872402563414812 0.0069876540658137 )
( 16.032525111857474 3.015714933838133 0.0002298981158975 )
( 15.975021941756022 3.1626941742666475 -0.0076748925248518 )
( 15.919821671806952 3.3052926232114546 -0.0163915291383501 )
( 15.869741182900023 3.4299980311907747 -0.0248905314700649 )
( 15.825399543385524 3.538688643712492 -0.0322652076721757 )
( 15.78405561630327 3.638593130980369 -0.0389482565483863 )
( 15.74089046564652 3.7402451397366554 -0.0454617437999467 )
( 15.702091797282444 3.8542643463530215 -0.051689114918094 )
( 16.727237406980645 1.7837509255183888 -0.0317788584589308 )
( 16.64140692044842 1.8562884952756504 -0.0303236730131761 )
( 16.53443130645088 1.9875378525673235 -0.0226322615792344 )
( 16.414423020952558 2.113572636422246 -0.0137287146584097 )
( 16.301356587767685 2.2068150877869748 -0.0076768124322515 )
( 16.194592123969343 2.300635304981797 -0.0037425320710119 )
( 16.084146847647038 2.40388694126518 -0.002720315938531 )
( 15.977141910639968 2.5136871982256555 -0.0041450361148371 )
( 15.880798702274037 2.631315263375104 -0.0081336185637446 )
( 15.78694048486603 2.763185353491516 -0.0150441705104824 )
( 15.692550670738347 2.913043719733869 -0.0240326759148063 )
( 15.606100889318975 3.0712937961961755 -0.0335785231570022 )
( 15.525876868688892 3.2279844350218685 -0.0430599038027776 )
( 15.447267329824587 3.376321478408832 -0.0524417823753832 )
( 15.37201312880372 3.499797764709229 -0.0605824503127609 )
( 15.300711565675806 3.611717527427994 -0.0667204777580394 )
( 15.234398784507611 3.7193793840560714 -0.0712915682911639 )
( 15.169120702222422 3.827857149033695 -0.074783470558837 )
( 15.10434811729296 3.950627615287944 -0.07752432214172 )
( 16.594941373595628 1.7674456908539469 -0.0374513901051344 )
( 16.483606613100886 1.8409455533675263 -0.0341038478226127 )
( 16.3402389267292 1.972211462873709 -0.0254093569069261 )
( 16.19124182321725 2.0919888271690943 -0.0179994774427959 )
( 16.05636094136253 2.1836149009027097 -0.014899085289 )
( 15.92824324023119 2.280148305681529 -0.0148176733343721 )
( 15.800226676445918 2.3858148424327985 -0.0178387011366527 )
( 15.673144246952749 2.500442819664473 -0.0237977738402615 )
( 15.548171066324224 2.625317058417093 -0.0322892847687367 )
( 15.42621962911234 2.7709374241301226 -0.0425968893566286 )
( 15.311160007606716 2.9307926942262457 -0.0532884245816172 )
( 15.197932517048558 3.095143104805905 -0.06325626332196 )
( 15.09170297848283 3.258662255742552 -0.0716314284433988 )
( 14.991375212393317 3.4086608974470174 -0.0781819654257374 )
( 14.892063636931434 3.534417909650872 -0.0829958071455685 )
( 14.801188720442292 3.6461062554710297 -0.0856374378651968 )
( 14.713242912296849 3.754463920689145 -0.0866158935964119 )
( 14.625666453492656 3.864944573962524 -0.086331187013918 )
( 14.538982764939192 3.991211757331597 -0.0845538284918486 )
( 16.452345489000553 1.7383335703598652 -0.0410264284050451 )
( 16.31660216309598 1.8125408899496156 -0.0368285097874178 )
( 16.146646667126888 1.941819113985944 -0.0289033472549081 )
( 15.976816667237326 2.0552172658489307 -0.0242497550867056 )
( 15.824247212200069 2.145467309250062 -0.0248306718016231 )
( 15.675429619002124 2.2420155360611984 -0.0290724800253065 )
( 15.528935194485063 2.351985406648548 -0.0358399622533654 )
( 15.38343413324353 2.4729116161684237 -0.045660504710953 )
( 15.23459066404909 2.6025721951661747 -0.0570346422235537 )
( 15.09425330662125 2.7554678520881004 -0.0672992684913473 )
( 14.956941315189496 2.922412204602174 -0.0765451230728397 )
( 14.816775124603485 3.0931435709326447 -0.0843973420037626 )
( 14.687512420048051 3.256523067305234 -0.0891955943930069 )
( 14.565455360092702 3.403415818154763 -0.0915856817295248 )
( 14.444991614406732 3.5328963019024937 -0.091978610786254 )
( 14.333128588539145 3.641838916946321 -0.0903652990410185 )
( 14.22560676275017 3.7472869940958096 -0.0873341986815962 )
( 14.116474192330932 3.8619394472181527 -0.0829725417399634 )
( 14.00841906776444 3.9912159431410137 -0.077242335448273 )
( 16.312706006260125 1.7004405198544437 -0.0438537626993506 )
( 16.154713818407945 1.7709881836111654 -0.0394362456300127 )
( 15.963784325091895 1.8961360292983656 -0.0342851563620037 )
( 15.777871158967638 2.0050215271274983 -0.0337915717647053 )
( 15.60777847223104 2.095147609219457 -0.0380029661133857 )
( 15.440259806647449 2.1954230309484046 -0.0457548863082712 )
( 15.273972802342444 2.3102281014417274 -0.0556597050975054 )
( 15.112238026953564 2.431722005822043 -0.0670483506059432 )
( 14.943848991625952 2.563712326025825 -0.0783563272988254 )
( 14.783042314199966 2.7238319054990447 -0.0865655088048766 )
( 14.621422579538027 2.8961180162661404 -0.0921716298820564 )
( 14.460299364251904 3.0711711620410176 -0.0956816222041731 )
( 14.30912652311834 3.2345834258888795 -0.0962941087968692 )
( 14.162232498198543 3.3741816773065443 -0.0948317973064264 )
( 14.026713690091716 3.4959224246162868 -0.0913787175675103 )
( 13.895195426173292 3.604036631537298 -0.0863162166458045 )
( 13.766789683573029 3.712478422036503 -0.0799091561048121 )
( 13.638472491466494 3.832619949370472 -0.0720463118524608 )
( 13.5111313273773 3.966505619798575 -0.0632497376552171 )
( 16.17806914754605 1.6497892289671263 -0.0468851837915418 )
( 16.00043365106423 1.7137201506514597 -0.0443043448657659 )
( 15.79169817635591 1.836382344870068 -0.04243075404941 )
( 15.593969821584324 1.9432514268832 -0.0453098027143965 )
( 15.406058693888388 2.0361994760577837 -0.0530566192550506 )
( 15.22532594372089 2.1372683326231905 -0.0633604148048565 )
( 15.045528524730624 2.250946248922529 -0.0741914603537315 )
( 14.86731406036434 2.378720193928021 -0.084382401282973 )
( 14.683567915949723 2.517651310112136 -0.0929934789467489 )
( 14.493943682747144 2.6770475273384515 -0.0991814952694893 )
( 14.30869747186501 2.851994382358232 -0.1008824061293581 )
( 14.130994429084526 3.026409929348303 -0.0991992715125622 )
( 13.954508701319892 3.187829687316918 -0.0961679581353288 )
( 13.786720181159952 3.325212076891508 -0.0911301734059449 )
( 13.636411125502825 3.441449373874272 -0.0847622277205068 )
( 13.485831603809872 3.5508255466705743 -0.0773699942169619 )
( 13.336470102551209 3.6603956639248048 -0.0684463972761813 )
( 13.187437130313349 3.781998325914986 -0.0579862874162051 )
( 13.03700044610635 3.920414748871056 -0.0462933583106149 )
( 16.043612926195635 1.5938810640487475 -0.0503488968140402 )
( 15.850750309630095 1.6579708964020028 -0.0505553823876338 )
( 15.629723323719457 1.7776420215309163 -0.0519189473166795 )
( 15.421697724759412 1.8782109301541572 -0.0578603015616685 )
( 15.222077800490585 1.9737703410075755 -0.0680005032235662 )
( 15.029937804281676 2.0713731922509284 -0.0793428059680956 )
( 14.834181855785156 2.1793625074634537 -0.0898249707576928 )
( 14.633793467451255 2.3086192181619904 -0.0979925848317209 )
( 14.435761648476678 2.44975068432286 -0.1027380754536062 )
( 14.228384805549434 2.61014891900293 -0.104965444460048 )
( 14.02224643275197 2.790326594629026 -0.1035465985643269 )
( 13.824542350555951 2.967050820892505 -0.0986881187218568 )
( 13.629537563040037 3.1230270222164487 -0.0921756630205559 )
( 13.446565401739814 3.2590367228011297 -0.0841534888101642 )
( 13.274373334429812 3.3741466847334114 -0.0754733399616019 )
( 13.101323968156487 3.480579088008398 -0.065655965715153 )
( 12.926923281334956 3.588795203557583 -0.0543962278068017 )
( 12.754097595510592 3.7105435668015594 -0.0426886706020174 )
( 12.581043715660662 3.8546328605410674 -0.0306109440807881 )
( 15.920053228580494 1.5371273278660835 -0.0551921031736806 )
( 15.718713525870813 1.6037515733963617 -0.0575135849829534 )
( 15.481317660653067 1.717541743603523 -0.0621076517923978 )
( 15.26660971334303 1.809884197998791 -0.0708601861745359 )
( 15.058633813696412 1.902000521029556 -0.0817444975244782 )
( 14.850489733520195 1.9981311865916795 -0.0926959077339314 )
( 14.639461318012694 2.101234178395107 -0.1021590103046343 )
( 14.425403263585286 2.2243545470733617 -0.1075690176133931 )
( 14.209108889454294 2.369890409630181 -0.1086813136595981 )
( 13.987423442655963 2.533695735745303 -0.1070468904136371 )
( 13.76207115933222 2.7126626703115444 -0.1023725755547981 )
( 13.53803923711062 2.8934085079506198 -0.094694645575533 )
( 13.329134388804611 3.046076269042325 -0.085400753643525 )
( 13.129987970992946 3.179832063024093 -0.0752149226835673 )
( 12.930957949621847 3.2944006049199337 -0.0644382336184257 )
( 12.731170632210322 3.396887804263711 -0.053284796121772 )
( 12.532345758326672 3.5050234509780904 -0.0421338930752021 )
( 12.339536435798594 3.629769650498696 -0.0312769458495374 )
( 12.143536687074018 3.7807626317409575 -0.0198969653139276 )
( 15.804778084178938 1.4754000019316091 -0.0617833453275445 )
( 15.593490896355068 1.5424214969817218 -0.0660796187824656 )
( 15.343383716373255 1.6530988334291932 -0.0734233650282615 )
( 15.123343864042312 1.7374213239066916 -0.0837505110066073 )
( 14.905928669965004 1.821253966410021 -0.0943240251794219 )
( 14.683757883391104 1.9159065500976096 -0.1041936706173421 )
( 14.463792514243895 2.024493502347836 -0.1105303166433504 )
( 14.236401328134852 2.148523762389073 -0.112467985486856 )
( 14.002484350933742 2.294572828270192 -0.1109434133758351 )
( 13.76281336772863 2.455857813566705 -0.106608966774685 )
( 13.519268814613175 2.629157500386162 -0.0988996450033505 )
( 13.274617959555233 2.803433584636848 -0.0884780712098308 )
( 13.042355074453436 2.957590158274372 -0.077416901139978 )
( 12.81853114068303 3.095528977932035 -0.0658419053780196 )
( 12.593808806177911 3.207516543815212 -0.0542375707867243 )
( 12.374183552310532 3.3046131061589863 -0.0436226764752887 )
( 12.158808656297596 3.4129235342026885 -0.0336749144932708 )
( 11.944759212526824 3.546626663195146 -0.0229729073555389 )
( 11.724838435081637 3.7074054871064175 -0.0098444380226325 )
( 15.697141593286013 1.4045493980654975 -0.0703048239050268 )
( 15.477288321900602 1.4705381009703165 -0.0765695616775029 )
( 15.22296723621584 1.5809044690156366 -0.0849347759049269 )
( 14.992497292434315 1.6642186144365136 -0.095534265410351 )
( 14.766616589057588 1.7486368389684452 -0.1046214287278494 )
( 14.535711631859767 1.8425158140433295 -0.1117645486195898 )
( 14.304182897244422 1.950555961575696 -0.1151747312160551 )
( 14.060048159371334 2.070667725339853 -0.1144623904323131 )
( 13.808464381730156 2.210046204658311 -0.1110892534711255 )
( 13.553527742848573 2.372643850718466 -0.104411307789981 )
( 13.288299119840136 2.549252317344369 -0.0940723563776835 )
( 13.024481817008478 2.71755032620926 -0.0820904750460115 )
( 12.766102269953011 2.868675970087905 -0.0698547647564315 )
( 12.512563694024584 3.0029799070657948 -0.0577682799496197 )
( 12.271607960448373 3.106829564778679 -0.0471433681928843 )
( 12.040163298504543 3.2041178800857946 -0.0368847894186474 )
( 11.805456483609442 3.317581107998524 -0.0258673140863217 )
( 11.565089762193413 3.457253919173985 -0.0132990957655326 )
( 11.31348119571994 3.632970964643742 0.0032208244166343 )
( 15.600673875801425 1.3262453747985223 -0.0799178334637123 )
( 15.379151287684826 1.3939539067120863 -0.0869578990707048 )
( 15.116882113121212 1.5041707833833682 -0.0950848398749637 )
( 14.876540232006324 1.5875745630838871 -0.104674336518106 )
( 14.641188598773484 1.672083118865004 -0.1117964022124758 )
( 14.404742555672392 1.761964747127201 -0.1160368213152131 )
( 14.160774530915486 1.8657494769117449 -0.1174525803115305 )
( 13.90685294377904 1.9837792345029652 -0.1154055611862212 )
( 13.63766000969814 2.118537444696017 -0.1099193064821785 )
( 13.360820722306704 2.2796255608146234 -0.1013165153390878 )
( 13.073158535126192 2.456835587016546 -0.0896246519692321 )
( 12.783069788817668 2.628057816283977 -0.0763259848948552 )
( 12.50200063915308 2.7789672087514288 -0.0633406416668087 )
( 12.232106803027811 2.9016309116733563 -0.0518413967303551 )
( 11.975324000534828 2.999510078338453 -0.0414307154463013 )
( 11.721098458481046 3.102999860559387 -0.0298012704054884 )
( 11.461255436168091 3.2280974081444254 -0.0167970705684884 )
( 11.189717426628697 3.3698202737382488 -0.0016206552715589 )
( 10.897278539317467 3.551860258683514 0.017200030812846 )
( 15.515710349961893 1.250247008601161 -0.0892200109845388 )
( 15.287917613053226 1.320826848196976 -0.0960528742662158 )
( 15.00856036724034 1.4302716247102325 -0.103903908982321 )
( 14.76402450435422 1.5065508942876331 -0.1117971099779966 )
( 14.524883461260885 1.5867577774202113 -0.1170736709455528 )
( 14.282764740888476 1.6749394531758266 -0.1196294544291361 )
( 14.026805746939782 1.7744002157219152 -0.119010012196768 )
( 13.75732124645041 1.892082214780212 -0.1152159959066597 )
( 13.475274014592364 2.024280138842164 -0.1076320517132203 )
( 13.17894258013404 2.17851902380976 -0.0977599163582491 )
( 12.865809771835076 2.3546953201440632 -0.0856310155168735 )
( 12.549164467519557 2.5241632856533878 -0.0715476113842514 )
( 12.244612432450843 2.6749087746069744 -0.0581250559250593 )
( 11.963126153644197 2.7926550351808355 -0.0466263772300122 )
( 11.691531078736295 2.8893170717871017 -0.0349335577734028 )
( 11.41333464187844 2.996540024354564 -0.0216695996382136 )
( 11.120531244102189 3.1267178452949564 -0.006762897494736 )
( 10.809358080761664 3.2807892659251263 0.0104897929097615 )
( 10.48553739892177 3.482697844282582 0.0294806934101103 )
( 15.43905985519122 1.178155179527676 -0.09762142742643 )
( 15.204698530499716 1.2482718100265051 -0.1041804058633359 )
( 14.915353015319246 1.3545893418538388 -0.1111593421650646 )
( 14.665985212850993 1.4226373308811482 -0.1173253940866157 )
( 14.42273154480806 1.4955358969880812 -0.1209666370048928 )
( 14.171403764638788 1.5880986237778898 -0.1219449005226726 )
( 13.904560188622206 1.6814239753008793 -0.1196852058074158 )
( 13.61755706578342 1.7900336328488309 -0.1135701928656501 )
( 13.318155738604045 1.924524114909693 -0.104660024369128 )
( 13.003238824067274 2.0734042419032783 -0.0942522991190888 )
( 12.660740881590742 2.251020904784512 -0.0811434833343493 )
( 12.31629413904696 2.4222085075703714 -0.0665951326767277 )
( 12.0007338610647 2.563119408539733 -0.0532543007878855 )
( 11.710770568285527 2.6763670298976727 -0.0404597894784814 )
( 11.420786431967707 2.776858998433157 -0.0273740069923981 )
( 11.115224360246607 2.8876693916969463 -0.0132549978103002 )
( 10.784821178022208 3.0207573423208527 0.0042324602345782 )
( 10.434021822504446 3.191904234021369 0.021635290322375 )
( 10.099299525608872 3.4335532292842847 0.0386086398894323 )
( 15.371470200335269 1.1078348207236672 -0.1042753660699358 )
( 15.12778738466949 1.1725494415631474 -0.1109653588172147 )
( 14.833257817806524 1.2786111594035796 -0.1165771912917542 )
( 14.583566845583638 1.3437924404264534 -0.1208350252836294 )
( 14.33281461103345 1.4119863240261517 -0.1227318706951697 )
( 14.067075343980994 1.4999425852265702 -0.1221224660599694 )
( 13.787818692671973 1.5847474823353158 -0.1187672644741757 )
( 13.493472796392938 1.690484566859573 -0.1115072467479214 )
( 13.17493921524802 1.8249526853996756 -0.1020467607997075 )
( 12.835126425235984 1.965121589315287 -0.0911131405555095 )
( 12.479201589839528 2.1358482323109302 -0.0772634906645499 )
( 12.114130062789672 2.317555789923725 -0.0618925827729955 )
( 11.783964349804624 2.4542950604270084 -0.0474304445995525 )
( 11.476460302445036 2.558658368267018 -0.0335442430006628 )
( 11.157581570243314 2.6626721415463157 -0.0201456353740109 )
( 10.813954862908844 2.7726894369332777 -0.0049069467765664 )
( 10.449792025426008 2.915223908919037 0.0124473643128559 )
( 10.083178755592636 3.11102802147696 0.0276802396576838 )
( 9.756506783178242 3.401312289562002 0.0439913588151456 )
( 15.307850586130812 1.0372519182353832 -0.1101756396141888 )
( 15.058680311052283 1.097867290931009 -0.1158670992445246 )
( 14.759468385395978 1.1990174945172256 -0.1204432272598548 )
( 14.510040182165872 1.261164310576863 -0.1230903119681262 )
( 14.252109813639976 1.3305474823380434 -0.1234223932248689 )
( 13.972980008469358 1.412799554957088 -0.1218047270172855 )
( 13.685437001489612 1.485943490547531 -0.1177394410333278 )
( 13.377739304018752 1.5914694686740818 -0.1098837545071677 )
( 13.038386895263049 1.726201898544362 -0.0996013882532788 )
( 12.678936971557988 1.866325136858081 -0.0877048242934371 )
( 12.303345044478668 2.02487218747241 -0.0726953215574604 )
( 11.923702444263023 2.1902195750434963 -0.0566264524596927 )
( 11.57761202243178 2.3283714932416903 -0.0413284968200126 )
( 11.242705139708528 2.4379651538256826 -0.0268921767159382 )
( 10.893445054133268 2.534669383527223 -0.0135795563222027 )
( 10.521009186342267 2.6466756680878736 0.0013975151820553 )
( 10.131136676524154 2.801748053111861 0.0171240067962143 )
( 9.766722240437185 3.03769781723463 0.0306012987736573 )
( 9.428464819974597 3.391225394292233 0.046567335859696 )
( 15.251980931272133 0.9647465195363464 -0.1155022142266712 )
( 14.999534686066475 1.02137928509401 -0.1197835976335681 )
( 14.693214661923214 1.1134265491377506 -0.1230626120862621 )
( 14.442264609880617 1.1761647427424646 -0.1241588036318453 )
( 14.17663191637432 1.2422600720025074 -0.123413953228886 )
( 13.884349422777868 1.3209041516601765 -0.1210962485270707 )
( 13.595120878163227 1.3942437173549065 -0.1166138274820585 )
( 13.273376307328284 1.48838450716945 -0.1083556053527446 )
( 12.91158793071583 1.618730718087002 -0.0973641858939598 )
( 12.53021667210164 1.7626684350101114 -0.0841476118655688 )
( 12.128166938628604 1.9181923505372285 -0.0677960741355451 )
( 11.741694433114205 2.06812924176683 -0.052064717265953 )
( 11.375122895667555 2.196101159580184 -0.0369401220808411 )
( 11.008807185329012 2.307180796437988 -0.021257757063026 )
( 10.639009278281868 2.4066360337202117 -0.0068256540941427 )
( 10.246339480135052 2.529697665029753 0.0075953814361401 )
( 9.839169976095908 2.7048148051145464 0.0214132969621545 )
( 9.4674369667868 2.9774636442542985 0.0339982029620929 )
( 9.03581196289442 3.349141738351657 0.0463655039283135 )
( 15.207145251370138 0.8934528425734166 -0.1190808564367613 )
( 14.946269724192671 0.941427016619481 -0.1223366648051538 )
( 14.633778303451978 1.0273346172150906 -0.1244049005038776 )
( 14.378027144545332 1.0891932260467674 -0.1243074732044398 )
( 14.10526030623078 1.153695564080001 -0.1229007235035501 )
( 13.80293731946096 1.232937853178667 -0.1198554381082394 )
( 13.501674128160465 1.3034759075123497 -0.1143414017761589 )
( 13.173024469938088 1.38707761700522 -0.1059050112183568 )
( 12.799579747020225 1.50715249666439 -0.0948599254374346 )
( 12.39586239298341 1.6426345518550518 -0.0810359518030723 )
( 11.972375753623869 1.8007198307295045 -0.0646878449079301 )
( 11.571238546437767 1.9528250891582304 -0.049042704581545 )
( 11.180009130152598 2.070344480357776 -0.0331975006395209 )
( 10.791348772907648 2.171895725472756 -0.0172600201285573 )
( 10.391972506650292 2.285750134771899 -0.0007558250832396 )
( 9.980017897353877 2.4194364143779588 0.014558467843817 )
( 9.569388295654171 2.615797033413349 0.0253752035136549 )
( 9.134664546824787 2.918862552726757 0.0372081583215614 )
( 8.536662728780797 3.244941184634529 0.0449480610750359 )
( 15.16558081911741 0.8176942185254705 -0.1217420046158017 )
( 14.901628677095353 0.8657308890505954 -0.1236290369859382 )
( 14.58755644077818 0.9456841257563516 -0.1245679356621545 )
( 14.322721285664006 0.9972404024580268 -0.124036820256862 )
( 14.042274485389992 1.0623107779594405 -0.1221077589822583 )
( 13.732843513464356 1.144473992609145 -0.1185172587304398 )
( 13.417718300300914 1.207243436910032 -0.112411504510671 )
( 13.082926958710184 1.2828270288668095 -0.1039117891753462 )
( 12.69020462833578 1.3982844895429576 -0.0919255221489186 )
( 12.268235560988751 1.5286540710401648 -0.0773611882557692 )
( 11.828582090714136 1.679173672683096 -0.0617579704207499 )
( 11.39846056596821 1.8281149268465584 -0.0452973296757288 )
( 10.992620891237127 1.9491300314138051 -0.028556351379268 )
( 10.596303039881311 2.047377492723663 -0.0136868581728179 )
( 10.169597735734316 2.164942461680966 0.0021319886843244 )
( 9.729281309556626 2.308912117331385 0.0153635226220044 )
( 9.306472297465922 2.5229004833243085 0.0267932216827514 )
( 8.776313161681358 2.836045490599123 0.0376804048797545 )
( 7.927985454378932 3.064213303241147 0.0405770686376352 )
( 15.126737858495664 0.741034894785914 -0.1232335112195096 )
( 14.862230619354609 0.791280196702148 -0.1243459806557321 )
( 14.545043194516046 0.8691809008758177 -0.1243132803536201 )
( 14.275609978535044 0.9159507511369822 -0.1233252280050413 )
( 13.985094791424498 0.975609786334986 -0.1208312791976176 )
( 13.66246935687558 1.0442763358752816 -0.116289120364857 )
( 13.337254638289286 1.1039743800222588 -0.1104050841786801 )
( 12.996140752690517 1.1752477169608768 -0.1025304772195037 )
( 12.577549585401048 1.2854601944515955 -0.0891703974024162 )
( 12.13697709004106 1.418365520045577 -0.0734031556944361 )
( 11.693402590169152 1.5604027041777346 -0.0584058337941575 )
( 11.250215594862992 1.707183726865369 -0.0412349812393707 )
( 10.827245974714248 1.833425927585029 -0.0241124994811566 )
( 10.403597711615705 1.926332762115344 -0.009166240136835 )
( 9.964195502695176 2.037520595884389 0.0050780011202317 )
( 9.50637978623991 2.1910319451147724 0.0160416520808985 )
( 9.020778090249578 2.42601842212939 0.0269563124176256 )
( 8.41959521547237 2.738186142090759 0.0338706865497316 )
( 7.1676863166167175 2.7775942843624897 0.0335164127660145 )
( 15.091103922932348 0.6727464435755052 -0.1234314404185903 )
( 14.822568799202664 0.718066970599397 -0.1243031360972612 )
( 14.503276410740778 0.7923719425921907 -0.1237893946560698 )
( 14.23270717518372 0.8388885499388286 -0.1223738202294505 )
( 13.932649905996923 0.8903558136008141 -0.1194707900328133 )
( 13.60356907075387 0.9465884063137896 -0.1142896704994942 )
( 13.26842308816535 1.0093712805260286 -0.1083004735325904 )
( 12.908899065668622 1.0839376094401656 -0.0999426360696813 )
( 12.471220831595009 1.1812711668137614 -0.0860173485047134 )
( 12.008548286473731 1.3091632611826147 -0.0698365847679651 )
( 11.558059264800896 1.4427604571612376 -0.0539941990084079 )
( 11.115376391806173 1.5734398200195177 -0.0378971529457719 )
( 10.67596764559062 1.6933820213698962 -0.02168814359809 )
( 10.22311684250343 1.7913206609638024 -0.0054611798415176 )
( 9.761042673738872 1.9014102132129305 0.0102239240219439 )
( 9.283806868949714 2.061907541728502 0.0216811549937006 )
( 8.718596570762633 2.3090603804124226 0.0296587621349483 )
( 7.923523177477872 2.557789396083992 0.0334428915914095 )
( 6.426892317261437 2.454470226470879 0.0309033620218485 )
( 15.062854919008124 0.6036531082775848 -0.1229884714619511 )
( 14.789527746608885 0.6471763222860293 -0.123388589145848 )
( 14.463322960059962 0.7169419945322556 -0.1226516447056212 )
( 14.190205812766864 0.7571256228761247 -0.1212693204405262 )
( 13.883885226610255 0.8071803931748287 -0.1179410331314939 )
( 13.553826083442326 0.8654824800465813 -0.1131628680088784 )
( 13.21459815565158 0.925948920023742 -0.1073375542038108 )
( 12.833028092803335 0.9933187806706888 -0.0975172968849611 )
( 12.383304143506397 1.0846960910631804 -0.083402616109848 )
( 11.911906511852834 1.2058325333098516 -0.0674017318285853 )
( 11.443369537600306 1.3314923559641254 -0.0505785845342492 )
( 10.977253928181414 1.4438776708696703 -0.0342931505961019 )
( 10.51894743283099 1.5484023359562298 -0.0195420817227036 )
( 10.04908988992262 1.64659568245057 -0.0044400859450541 )
( 9.568861499881775 1.7635706332763526 0.0111675516127445 )
( 9.053142276022983 1.944940096635233 0.0218434198780119 )
( 8.425854156473653 2.18469915650814 0.0305493387474651 )
( 7.383404855317161 2.311290422660499 0.0342951953528118 )
( 5.787482722269791 2.142812460257084 0.0283240459533254 )
( 15.040222678680466 0.5320829689153599 -0.1219069745448735 )
( 14.766256273350852 0.5765562468476592 -0.1220190272197573 )
( 14.431323298711492 0.6437240514174128 -0.1212942439044911 )
( 14.150880750518246 0.6772967761963592 -0.1197003722290801 )
( 13.83787530943954 0.7218546084937898 -0.1161404923696198 )
( 13.503475639913653 0.7782653870510815 -0.1118546371568088 )
( 13.158608752461136 0.8253005485839268 -0.1059930309798613 )
( 12.7645599008321 0.8881058601362208 -0.0955059071200771 )
( 12.312350298490896 0.9880872241283472 -0.081574078081309 )
( 11.833688712093682 1.10264115326137 -0.0657876503909219 )
( 11.341467533207569 1.2230271001238642 -0.0492927395813136 )
( 10.85202913405347 1.320102493056729 -0.0321268082815758 )
( 10.375951586882028 1.4110755517011242 -0.01778516596467 )
( 9.878432371267706 1.5046714589878696 -0.0036843787255338 )
( 9.381262420975435 1.6238389215280713 0.0096120634084872 )
( 8.808337111480158 1.816011854162877 0.0183623243654341 )
( 8.103499427309242 2.030492927843486 0.0274418165093063 )
( 6.929801844082081 2.0655182517357717 0.0325680346001701 )
( 5.198162704871263 1.8276873479395976 0.0265372609331277 )
( 15.020337621918454 0.4702394254039073 -0.120478233024532 )
( 14.744856520874103 0.5100445343788683 -0.1205800725170613 )
( 14.404860983015228 0.5696734832577106 -0.1199082967953546 )