/*--------------------------------*- C++ -*----------------------------------*\
| =========                 |                                                 |
| \\      /  F ield         | OpenFOAM: The Open Source CFD Toolbox           |
|  \\    /   O peration     | Version:  2112                                  |
|   \\  /    A nd           | Website:  www.openfoam.com                      |
|    \\/     M anipulation  |                                                 |
\*---------------------------------------------------------------------------*/
FoamFile
{
    version     2.0;
    format      ascii;
    arch        "LSB;label=32;scalar=64";
    class       volScalarField;
    location    "0.0032";
    object      k_LES;
}
// * * * * * * * * * * * * * * * * * * * * * * * * * * * * * * * * * * * * * // 
 
dimensions      [0 2 -2 0 0 0 0];
 
internalField   nonuniform List<scalar> 
13597
(
0.2848196308674912
0.2846198088816096
0.2837593788453261
0.2852232905252553
0.2875920893911746
0.2901601962956677
0.2933699414937484
0.2966357538144624
0.3008497282316007
0.3051876776610879
0.3098747338599439
0.3151367609765141
0.3192951957234572
0.32293497485537
0.3265703281215197
0.3294165660727161
0.3309538290079332
0.3310338400205068
0.3309588837895581
0.2946345929626275
0.2953130360584634
0.2951544176743647
0.2988620492655452
0.3019299971911895
0.3046714137053917
0.3070468507689834
0.3098691864634835
0.3134050320746389
0.3160201079601752
0.318214851123374
0.3202965862588017
0.3213169304261892
0.3217864572018474
0.3223101278680928
0.322006238239283
0.3209942324391113
0.3195353521266474
0.3182430465957284
0.3057096035534612
0.3073015574648186
0.3069308473956189
0.3096963374296218
0.3114740666960418
0.3127575751862116
0.3126831538290614
0.3124354526224257
0.312516567663254
0.3118081402584132
0.3099974575711878
0.3090489045802306
0.308787881147271
0.308284580434866
0.3082838762744042
0.3084960437745971
0.3086853719834291
0.3091167810698675
0.3098740370092759
0.3149084122437387
0.3156473251344269
0.313453900179468
0.3127736753140595
0.3107929853748932
0.3078798658165805
0.3042121526818281
0.3004678826486613
0.2974777128675316
0.295701874908763
0.2938202450761744
0.2937259992316
0.2953208187680311
0.2985572804358503
0.3027490063836305
0.3069927457201646
0.3113742796736855
0.3165565671665455
0.3224572446118389
0.3203719619032823
0.317453234071374
0.3113833712421842
0.3061294117957353
0.2993421909090434
0.292865312859102
0.2866526728513159
0.2812286029144664
0.2783953900591724
0.2785976949484318
0.2817566629029644
0.2873606955512599
0.294979383474774
0.3045795710042225
0.3139072433151204
0.3231230391277142
0.332489696442126
0.3422454484411856
0.3527664033154807
0.3201601782798794
0.3118077687040465
0.3000442128379758
0.2903694280523203
0.2806234817555265
0.2735717132152047
0.268197340607228
0.264796648070246
0.2655462320026505
0.2707758746012368
0.280165597957408
0.2921623220575304
0.3064326654033502
0.3214591159919125
0.3356131526830784
0.3489110526824068
0.3622286755647276
0.3753293588638721
0.3891887160814505
0.3126177554572737
0.2993086978660902
0.283913078532452
0.2715885988203907
0.2621885286455536
0.2559026556293852
0.2523902991149769
0.2535988811717937
0.2596243359929581
0.2708338923739052
0.2863926081778599
0.3049980762400867
0.3252661194357787
0.344926896098846
0.3637207449344657
0.3808580655003117
0.3971412520884511
0.413874302760563
0.4309287789656442
0.3015080297258008
0.2845546132967894
0.2678936288519082
0.2551487899641891
0.2464194520094021
0.2420801467974839
0.2423797995214318
0.2485652680597459
0.2604869465132737
0.2777122746918069
0.2998638176417894
0.3252307919390987
0.3504516668746624
0.3742937742847532
0.396050713870714
0.4164625726587188
0.4364923866099664
0.4570998282798881
0.4773968469366301
0.2881581727541054
0.2688453592250284
0.2519175671676907
0.2404374224607612
0.2338145016444181
0.2330291711609332
0.2378921009290695
0.2493927861843563
0.2673750313293579
0.2912570723734829
0.3194107108774655
0.3496053728221659
0.3791058319240476
0.4069207504808539
0.4319828528956271
0.4556855245087866
0.4791074757705004
0.5028953112418235
0.5268406557093414
0.2747541851061153
0.2545644146934759
0.2372759670009008
0.2280368028459864
0.2252763756203616
0.2283643846993452
0.2375061063030913
0.2547289858050428
0.2783893662834091
0.3077764793922669
0.3414569483693095
0.3759116829437416
0.409305234539759
0.4403787683197915
0.4687152212143314
0.4960418208828143
0.5233256614284388
0.550923950465093
0.5793279185751922
0.2627508937351892
0.2425636420849496
0.2260085253618791
0.2190450689325815
0.2189265780265685
0.2260732329426385
0.2408127138294772
0.2632983254306082
0.2923929383475784
0.325978699493053
0.3637307204021537
0.4031428994234718
0.4395303291984826
0.4736889406575507
0.506111174492326
0.537802838895058
0.5701510852642618
0.602770374956248
0.6373298924404613
0.2511746631648856
0.2320123960913356
0.217942275482702
0.212992451434977
0.2157850328715921
0.2270999984389864
0.2470843094286835
0.2744534986984531
0.3079178083030581
0.3454844001083271
0.3866564862721676
0.4295940824635113
0.4697317853710678
0.508511959378476
0.5463481051020193
0.582877524605355
0.6201451472605274
0.6597692101322574
0.7026618096953398
0.2422039413880961
0.2231791526880306
0.211487764257908
0.2096845539363235
0.2163062625085384
0.231621418184805
0.2554347710759491
0.2869962532831193
0.3240362106168166
0.3649435110317816
0.4105337411326772
0.456823376426817
0.5014361676949255
0.5459462882225051
0.5882197711661727
0.6297972223147079
0.6747169129801759
0.7237686705786995
0.7756033797048119
0.2363364577454345
0.2171090910266827
0.206682605486556
0.2081135003875318
0.2182640351713354
0.2372634929966065
0.2642488551301126
0.2979752373755411
0.3381788004458665
0.383404673917825
0.4327779715033168
0.4839511726550896
0.5343755623694131
0.5833471047749385
0.6309291959408571
0.681013679109806
0.7363472415619402
0.7948925371661246
0.8565606670939893
0.2312206516029536
0.2123985747610023
0.2040104031213777
0.2080312660666786
0.2212323144192766
0.2428625783700314
0.2725371073222695
0.3091086852604334
0.3520276475063404
0.4008268546862642
0.4548806753513656
0.5118332919181617
0.5691042697240605
0.6231568127661364
0.6778203735003556
0.7379141387391912
0.8034842422338662
0.8736216264018912
0.9552984496906296
0.2259303407703884
0.2078409243584421
0.2023353631610281
0.2094198399131719
0.2252428428595745
0.2489755543150306
0.2805924274902236
0.3200663792833559
0.3664098610459558
0.4180677572396592
0.4782291748415304
0.5429014425890223
0.6050133711360202
0.6647484256196208
0.7283881854740742
0.798379001117667
0.8760602883932266
0.9665762730384596
1.08448836641947
0.2207187306841574
0.2041771702603363
0.2014636101401177
0.2112576071505956
0.2294722707814392
0.2558529157792019
0.289536079196216
0.3304445893534934
0.3798638159686935
0.4357733958861624
0.4994086329535512
0.571027538573069
0.6399118163575283
0.7072704475438333
0.7810899005608427
0.8630905689034347
0.9585964309821576
1.081542311931751
1.2401020340486435
0.2163133993532677
0.2018096979513631
0.201376642040802
0.2131215365616371
0.2334184336445215
0.2618890861423498
0.2970025821666381
0.3402700807507235
0.3932641356163249
0.4533876642270106
0.5216966022264402
0.5984970253416286
0.6751699546408093
0.7531040164501863
0.8373818199320832
0.932956390122756
1.056309217492979
1.220213871317292
1.390183293503536
0.212730124073024
0.1999492536160979
0.2020764098927378
0.2156071542505364
0.2370615366068857
0.2677390141002445
0.3039043949093793
0.3489856736994803
0.4055870114814675
0.4706763848130784
0.5465099803981056
0.6277496623559796
0.7119474202359753
0.8015485444907093
0.8975293719117252
1.014145347291867
1.174641732881227
1.3783874591367982
1.5206074838640893
0.2100345365134022
0.1986042360559331
0.2033395786758243
0.218306890449193
0.240865532808815
0.2733119950877306
0.311498987091574
0.3577019300508522
0.4163266265979182
0.4865150805923097
0.5699843125918767
0.658769577621241
0.751270811757497
0.8495444859787417
0.9644773913359816
1.109211807474127
1.3108025864777897
1.54225309439983
1.6217380357905171
0.2078144818598705
0.1977951591395722
0.2040000196621867
0.2201560572529669
0.2444214220065718
0.2781695297271569
0.3177635118440473
0.3650796093614958
0.4274979143196439
0.50278970365487
0.5927353891363326
0.6920569417369703
0.792487112622694
0.897715018492188
1.0341322605096372
1.218360178953221
1.4617871424072073
1.695154104422698
1.63807632369842
0.2056165510907836
0.1973733819856299
0.2049914732879727
0.2222395339828614
0.2481115671038612
0.2836545220853003
0.3244087753529464
0.3727047222067022
0.4401045957820453
0.5208708956948834
0.6152057862826622
0.7209750424340677
0.829601165107273
0.9507360121040372
1.1082971185870314
1.3355234084848788
1.616322438660824
1.824354849575228
1.5365709694551648
0.2036630728183528
0.1974519758510766
0.2069353860281483
0.2247208001115189
0.2513238611702763
0.2876018444571286
0.3300271659900159
0.38140919107527
0.4527421881592433
0.5399286343086234
0.6391668848017091
0.7481566449762969
0.8644853743557701
1.0045031123205248
1.1959898025334106
1.464486859130848
1.7680229467545223
1.871630296667789
1.4122101895481445
0.2021016377194713
0.1972937035766898
0.2087910661117421
0.2268583232716816
0.2538901550369408
0.2909590937343615
0.3342415902165349
0.3886453228486949
0.4630834573890375
0.5545381319918978
0.6600733304268575
0.7782299719056287
0.9053575772625504
1.0629654988231885
1.291026696058135
1.600534354708668
1.9082641268324787
1.8513193924937568
1.2926199174016249
0.2011102043987016
0.1974832450036837
0.2097620969942751
0.2285365010703478
0.2566113266486558
0.2942820759422735
0.3380103498287164
0.3947935181298611
0.4717446705367267
0.5668953918060631
0.6803344389448022
0.8075117958225672
0.9459432828274352
1.13135910309419
1.389356143501269
1.7280975047914728
2.011472966420871
1.8148610406345649
1.1566608767962678
0.2005566738141899
0.198399609549544
0.2110412975063783
0.2306848777337794
0.2595378901093355
0.2964629389962333
0.3418142070537732
0.4012469486036971
0.4803400864604194
0.5813566731813995
0.7006104435511492
0.8339248109184081
0.9858544700880628
1.1971977523080306
1.4861548755369018
1.8485427536812096
2.045104015075102
1.7265923139336858
1.0512286691283497
0.1997184563095309
0.1990942321811441
0.213049009816336
0.2335927436988187
0.2621166491948383
0.2986088189826463
0.3467033405645776
0.4092470246629363
0.4905445718376017
0.595986212608198
0.7195514146120021
0.858566157243309
1.0254443990037694
1.256569561197607
1.581191672227059
1.9548098972255008
2.055467202329919
1.6266438467562172
0.9632885905219948
0.1995159259080092
0.1997724274446781
0.2148739621245564
0.2362323099637953
0.2643354178456871
0.301613935505318
0.3511086782845455
0.4150485849800232
0.4993775131430969
0.6108687602769352
0.7404418730855813
0.8825157959326432
1.0617523427469808
1.316543188101294
1.6830197364159425
2.054937684934379
2.0890051895927746
1.559451475544226
0.8877907618907568
0.1997627796500998
0.200598042644268
0.2157688020618738
0.2376579026883442
0.2659576215851522
0.3040417644718164
0.3541005177528983
0.4188108303174232
0.50676486699273
0.6234678569507877
0.7569333003979569
0.9076607171782364
1.1086640736471425
1.3819809501145246
1.7744613571714445
2.130916812108989
2.090754867374845
1.4972352119719017
0.8379931980148527
0.2002282474155015
0.2017389559675148
0.2170944472123513
0.2391354226100922
0.2678077799213332
0.3064267272521079
0.3564195729932181
0.4231637257946074
0.5154023526740882
0.6333077372279211
0.7691606360023224
0.9338651206704648
1.1509145672540804
1.4449478798528392
1.8525175887721992
2.127937596720941
2.0103161069270974
1.4331283279916964
0.8070959308924519
0.2008825124659975
0.2032213176851312
0.2194151936727165
0.2411430259568222
0.2697143077673193
0.3091810959845083
0.3592565693199111
0.42847889379452
0.5240120552009206
0.6435994329722862
0.7836191946177984
0.9584921131831492
1.180359604783647
1.4998142599867823
1.921719593543059
2.1125238264196806
1.926275308934429
1.3758481637132745
0.7849838751638998
0.2015299374458503
0.2046050380058995
0.2215302568761962
0.2434909417754105
0.2721048483814581
0.3115834462862141
0.362492653917816
0.4342745133908459
0.5318329231795922
0.6539120472780957
0.7979475651858625
0.97890704949959
1.2106482961216838
1.565441205373475
1.987118296556434
2.1357760027778414
1.903041210199732
1.3282540217244507
0.7591996733996874
0.20230512212419
0.2058712329866833
0.2234288705677047
0.245865317448575
0.2745609987668421
0.3128158112255543
0.3641641173643628
0.4385673540712096
0.5383862466457101
0.6637474953922899
0.8120762720216189
0.99912291749351
1.239080660877054
1.6203113070985036
2.0492242486326906
2.1710281989075573
1.90117518723926
1.293744052244759
0.7307511077640725
0.2035289081144871
0.2075545396941126
0.2252413835824708
0.2475364495227291
0.2761450653320711
0.3137143674088946
0.3648737928423028
0.4413685590703123
0.5435569265220385
0.6735065413573658
0.8276334550352076
1.0188528447582563
1.2643083669292852
1.6588496263326888
2.102620993858281
2.207034720390132
1.9031438156942984
1.2725033891652495
0.7127083719482403
0.2051589245330619
0.2095544622664848
0.2270139369367219
0.2486324448059312
0.2769723152339486
0.3149267078338235
0.366254244435092
0.4432348902396775
0.5477242298554766
0.6809754031975999
0.8393431092095179
1.03486063428512
1.2910837827429722
1.69846352748544
2.140347566810509
2.224615915151953
1.8973819399672311
1.2543146189077092
0.7001259521581686
0.2065448645930369
0.2111132607269523
0.2285253527215149
0.2495593087663766
0.2772892058469328
0.3156764653900306
0.3672892331101088
0.4447934849850803
0.5521918072973975
0.6863789776804157
0.8477425633785535
1.049227620040467
1.3157090877845234
1.726982153916301
2.167758197337161
2.239828379835666
1.8862397099745
1.2333294859016426
0.6861620387293307
0.2077027542620045
0.2123104907544571
0.2301367742434127
0.2508104764129349
0.278206244310767
0.3171759167637499
0.3694588116204447
0.4474050401152218
0.5569350848637016
0.6920596930523434
0.855643876047631
1.06300056764142
1.3366877370512142
1.7523156610231212
2.190605308199092
2.2461941964967136
1.882896030526321
1.2259892312776248
0.6751974775967154
0.2089919337241543
0.2138267479184446
0.2317423592290991
0.2520135971017991
0.2790085892323905
0.3181084299917927
0.3719263204966869
0.4502561853177145
0.5613035405376864
0.6969560338380122
0.8627152517526074
1.075468021894333
1.3620855278060409
1.781582843562732
2.2005242570599166
2.245224604201425
1.873834978408799
1.2204826184852455
0.6685409361569583
0.210494216564379
0.2154584515556378
0.2328079365470242
0.2531035101607939
0.2798238952488805
0.3180658077148413
0.3724121463304761
0.4514094482328487
0.5647674862461153
0.7011533386940397
0.8684617603516702
1.085321339648648
1.3881871563173982
1.8159331687316436
2.204745413051597
2.2355983914926862
1.8551237494201944
1.2068215326735072
0.6647762529501549
0.2120823347652533
0.2172764372849041
0.2344268239533368
0.2544537739352206
0.2808984485535191
0.3187176681589654
0.3727762083681591
0.4516016141090949
0.5658231016262228
0.702973221846522
0.871680391279842
1.0916197127481564
1.4021474694183118
1.8415303728607189
2.211376854223093
2.2191836808973275
1.842077359549622
1.1986308863555653
0.6630807224027526
0.2137935322418596
0.2190878529588774
0.2360066290004845
0.2555520624999352
0.2818075945468017
0.3197102099019676
0.3732785575643975
0.4522742981780723
0.5676176256517347
0.7066520124196628
0.8755228624531852
1.0996339551272851
1.4144063672872336
1.8545584399583184
2.210469108287181
2.19964886483477
1.8250344461978496
1.1885711732285484
0.662083857654227
0.2152930940734328
0.220627486903529
0.2371508101653514
0.2562747667686166
0.282348680000868
0.3204539886911536
0.3743310580496715
0.4537808646366804
0.5708021814332517
0.7135672443736475
0.8817318581594172
1.1079217901293303
1.4253563227928547
1.8589852163627216
2.2077042813960897
2.1888294061096354
1.8065023445614763
1.173375096439823
0.6582616833234604
0.2167680769480624
0.2222146186000975
0.2386501576138782
0.2574329302573293
0.2832650109261961
0.3213739753488589
0.3755897434536842
0.4544374358688025
0.5707516995135894
0.7166668813833611
0.8863868903194315
1.111023457989905
1.4254280775922783
1.8644181737974388
2.218046949908727
2.185585259606483
1.7905453756004337
1.1598988125904974
0.6505536311348222
0.2183277312325327
0.2233954369377867
0.239644860868472
0.2584593043326847
0.284353159643365
0.3220550398064101
0.3755288890215165
0.4540229949374013
0.5716999494428397
0.7204959677613797
0.8908330133451752
1.1159228877730103
1.4288954238538534
1.871343927080903
2.213534220483734
2.166572807617992
1.775180670863151
1.1514596024765706
0.6464080724341986
0.2191608996738186
0.2177290484469652
0.2157012360230591
0.2142620294566885
0.2142306925322276
0.2138968047200976
0.2130902812274245
0.2124023965002002
0.2126733183865014
0.2133913085347633
0.2147992130932436
0.2172807728612608
0.2196609977224318
0.2226973183831953
0.2268615570500882
0.2312126839372056
0.2367818474740153
0.2429968560976431
0.2486448124110306
0.2223503810672777
0.2222753626956078
0.2212919479224943
0.2221407872761324
0.2236530399340194
0.2245114974491947
0.2252353117291509
0.225558123286293
0.2260288962878727
0.2267498342147149
0.2279981999703849
0.2306943608576852
0.2333109857945725
0.2365351596076687
0.2412112046330469
0.2455842363425609
0.250699280072344
0.256891899137894
0.2624664966797219
0.2281010141461126
0.2300610938236649
0.2320744776165982
0.2364337255210256
0.2396270156393078
0.241450965856686
0.243030542992981
0.243852534495073
0.2442562267770469
0.2455807684334841
0.2478747757386239
0.2517028425640882
0.2565276536881591
0.2619808388765507
0.2683505492836709
0.2747374125728275
0.2804515260860537
0.2856044260555895
0.2899859232273752
0.2378301485550663
0.2420060546690528
0.2463471334744404
0.252634558919124
0.2566887609717049
0.2594400404033437
0.2614728842205827
0.2628593271288685
0.2641549870838278
0.2666331431295349
0.2710377373194822
0.276461577461896
0.2831827183522784
0.2904163626620128
0.2964848626216698
0.3012976058013826
0.3049028784761148
0.3080735378424282
0.3109085293734148
0.2485315940859945
0.2544009656463334
0.2612196847579248
0.2685737022662258
0.2730345062672398
0.2764498603663793
0.2796364121267412
0.2823556986506453
0.2855490552312578
0.2898459292823014
0.2956863693984832
0.3015156691353093
0.3072333677043716
0.3128809275321627
0.316959966686778
0.3198820149661532
0.3218200747987498
0.3232278327292421
0.3240922917598998
0.2579095732985815
0.266316054220227
0.2755183185588493
0.2835563834657382
0.2886764503894171
0.2931553352812939
0.2974807430726457
0.301579688790584
0.3061578326867865
0.310198596725536
0.3145270998013837
0.3189316720102117
0.322702780520838
0.3256649050112569
0.3279196902857974
0.3297121847576834
0.3307196487740783
0.3319380900250837
0.3333509697239374
0.2691244082960296
0.2791189766147131
0.2885034734796395
0.2968528302527511
0.3030791010418883
0.3083213716003385
0.312716642871755
0.3168567182109194
0.3206606354628367
0.3232948051223025
0.3255530504349318
0.3284118894201608
0.331261030212576
0.3333728743106932
0.3354542914188509
0.3379419113642663
0.3408369564067089
0.3447318078371336
0.3493483539418448
0.2806990587675677
0.2899615535990409
0.3005877972083
0.3099894972577637
0.3160701262562325
0.320588184079451
0.3247357455097779
0.3273930738587768
0.3286872698391437
0.3303022503310777
0.3319322117561666
0.3344057965719762
0.337667794329999
0.3411843153202142
0.3455249475621271
0.351210391553333
0.358215601783638
0.3667189847379274
0.3765850695249529
0.2916389808588752
0.3004467725784881
0.3116221416747748
0.3215445901274036
0.3269909967040338
0.3306268783615023
0.3331991260061936
0.3341153183048967
0.3339540897349165
0.334123857862634
0.3358988121505608
0.3401312207279329
0.3457841868233214
0.3527063546492015
0.3614471809631138
0.3720200388912621
0.3841661849035918
0.3985242081344357
0.4150326451800115
0.3000046941193947
0.3093919562277373
0.3211307513023645
0.3303645228621934
0.3348552947101091
0.337415506203861
0.3380339343765846
0.3371566088742384
0.3364386505291645
0.3370504309112135
0.3406908977640157
0.3482292835390727
0.3580029216429757
0.3699795617784444
0.3844185165688973
0.4006467459049472
0.4196587799688571
0.4412193893853993
0.4648569233757958
0.3062883602357551
0.3170986532044862
0.328922301003674
0.3368311220747457
0.3398842444847612
0.3406116058378117
0.3394152351203031
0.3374516894157401
0.3370359195475578
0.3398598813349972
0.3473242069712519
0.3596335547191384
0.3749873122841274
0.3933738842592829
0.4145362062131032
0.4373439878284115
0.4635385538904842
0.4927803687007375
0.5242425519586451
0.3130611221512666
0.3235549963498739
0.3347765099706558
0.3405261114096677
0.3415133101429994
0.3408564419865509
0.3385280191982887
0.3369239625986086
0.3382989918809774
0.3445744799129131
0.3575359366864919
0.3754418031225679
0.3967604805902081
0.421908418242156
0.45019480210822
0.4808039615314499
0.514674093051744
0.5523415311920291
0.5932060448543215
0.3179801839987753
0.3273762848583735
0.3382590755893837
0.3420815860135818
0.3414145778628981
0.3395336328884755
0.3368775454834419
0.3363593718330084
0.3410580684666119
0.3521072465481267
0.3705128771855486
0.3952298905701926
0.4232871984194044
0.454685501541208
0.4905621773354769
0.5300443269733246
0.5731420534235607
0.6210781256379585
0.6732575675759894
0.3207208215194839
0.3294544935624646
0.3395019158642056
0.3421722295556906
0.3406779564373078
0.3375042901773304
0.3349999847641115
0.3367827140169059
0.3452504468274718
0.3614670785405532
0.3857454584766243
0.4171709322049757
0.453109992566895
0.4914212287520244
0.5358579020824906
0.5863318514026982
0.6394209710102255
0.6974894276284678
0.7626288890436826
0.3229477041180285
0.3301695139667827
0.3388168050575256
0.3406546900725607
0.3384295499438578
0.3346312893858872
0.3336801597275231
0.338178836595202
0.350455127928378
0.3726170886661291
0.4032311824303756
0.4408732558542617
0.4851026300716444
0.5332647719071061
0.5862601155241317
0.6470319208055125
0.7117734736321965
0.7829824516142379
0.8732547947548255
0.3239548252440449
0.3300262746906937
0.3373668274170844
0.3375401136574028
0.3346740227188123
0.3318878939755653
0.3330210310382887
0.3405066905498502
0.3570361926913556
0.3850128105549162
0.4216856284865333
0.4674377007672473
0.5204385542630787
0.5789506468735844
0.6413486998607759
0.7096856826294028
0.7884171397778618
0.8848263117825595
1.0134290181016583
0.3229295061102085
0.3282184188543117
0.3353033368315308
0.3338666839243744
0.3304237025165441
0.3291676126181851
0.332860975619822
0.3441303514774368
0.3655828644314536
0.3986544933097871
0.4420624576227699
0.496430992789957
0.5577123179525482
0.6253020273181414
0.6986095765810049
0.7785468431740872
0.8757076104769055
1.008267243950657
1.1694957703711102
0.3198988646838259
0.3243779911324244
0.3313119619217373
0.3293959554934803
0.3261836776752055
0.3265382405532856
0.3332910228415076
0.3483696314728818
0.3751120472584232
0.4135276738659147
0.4646344357524473
0.527870196292589
0.59805639477268
0.6750239687178569
0.7580794162684157
0.8548543358541849
0.9811919788787842
1.1586738837567478
1.3232160955772472
0.3157447603130301
0.32021120108257
0.3261535742550396
0.3241735039389226
0.3222047686620902
0.3241776454128163
0.3339416370429415
0.3533116755928653
0.3847545749317448
0.4287261499307081
0.4878771973751232
0.5592419215344773
0.6394943860959856
0.7260518086247091
0.8201660387770748
0.941107156122339
1.106701897305418
1.3171716108661142
1.4320618502184763
0.3119785117903985
0.3161733569478444
0.3214591453737811
0.3197861777068778
0.3189681101578953
0.3223603146826333
0.3343963797483204
0.3581747808792062
0.3947174447717909
0.444811596459519
0.5126133773974421
0.592771471408406
0.6819725064636484
0.7790928451704223
0.888330131076919
1.0369948325016451
1.2490406967723502
1.4625979228099184
1.4913751322613653
0.307737220117219
0.3110876889817314
0.3163792645190927
0.3156735743057771
0.3160294136457165
0.3210539017818514
0.3360879406549295
0.3635321044332908
0.4043555014822979
0.4607434346523649
0.5372984456831525
0.6286373746343995
0.7258433636204615
0.8349905966777547
0.9659893266830202
1.1475078927763775
1.396590318334868
1.5946864525775903
1.4951265048294058
0.3023570149674804
0.3051996926261413
0.311053785574416
0.3110888827721461
0.3126553167206619
0.3200206846115314
0.3382699139672382
0.3691758501344311
0.4147869334032164
0.4773394531988942
0.5609415300873066
0.6616244572999729
0.7686525188692008
0.8902914087173903
1.043742257145106
1.2710695128864349
1.5546036605089866
1.7224057496759102
1.3981470753560667
0.2975481226090948
0.2997388359384932
0.3058452996638002
0.3062660284196671
0.3090497571801959
0.3190288679319045
0.3403435464400369
0.3749219109640567
0.4266393635812045
0.4963609770935116
0.5867985413748915
0.6962189491922984
0.8149377200540648
0.9506671390104648
1.1363471065812425
1.409718807538296
1.704885690734411
1.75059045028964
1.2697160637821343
0.2923903061023882
0.2941842026532911
0.3007301437717068
0.3019772344243454
0.306389418870748
0.3185573243396736
0.3428166978414905
0.3808938629277505
0.4376248044516478
0.5150826157874043
0.6126760214534928
0.730098786440489
0.8607300028271472
1.0149785019051452
1.238089982493902
1.5492775747437506
1.822867216091129
1.7065301219203637
1.166346236536838
0.2860926260069118
0.2882691108552244
0.2960485110192051
0.2983614766391668
0.3042606533841717
0.3182786822324712
0.3445848602739261
0.3864409197980676
0.4478778580464017
0.5326265386020324
0.6390109180871049
0.7639257197721716
0.90562143526115
1.0866410550538657
1.3426150439990403
1.6692548423207194
1.9017260309210864
1.681546044777098
1.0646056790676273
0.2802013328786334
0.2831316682790054
0.2917953507498533
0.2951086910435356
0.3019749966479522
0.3185269700925373
0.3476083570544651
0.3924230348915012
0.4588741416235191
0.5499379175186472
0.6633384758215026
0.7971133675485834
0.9471227467863348
1.1527714263183964
1.4441771104456105
1.775461162561874
1.9109769021891323
1.5944552881521967
0.9695129123756178
0.2749869646466823
0.2781644222343535
0.2871861860069711
0.2915618053137401
0.3001509348414301
0.319032484796945
0.351115649096331
0.3982767961679864
0.4686353521782062
0.5648374960117817
0.6864229355196545
0.8304219692310214
0.9908268477343832
1.213461075350116
1.535648934377998
1.8757783085057589
1.9259660874409976
1.509866443396776
0.8878850907525597
0.2700631764717685
0.273012503080306
0.2820137722783299
0.2878039078141452
0.2985928185800386
0.318798710305779
0.3525128416585333
0.4023103739966129
0.4763637387883569
0.5786999625999093
0.7099438579369434
0.8608294601223259
1.037873465177733
1.2843368595541556
1.635921253471651
1.9832937537155069
1.973111180852712
1.4689038108482395
0.8348376261635371
0.2654188879328356
0.2680809009705605
0.2777670754385414
0.2848092036166523
0.2967378915994645
0.3181953481782776
0.3534535621001931
0.4069972765376994
0.4855489703761961
0.5944126041476937
0.7301178386253009
0.8868865531712717
1.0835663629915229
1.3516208405702808
1.7193811038987306
2.0426056131344192
1.9738721253631168
1.4238573972235358
0.799815060154887
0.2608493531004897
0.263344096500285
0.2742658431744011
0.2824228976405984
0.2951173262943046
0.3181777025567913
0.3558741219248991
0.4131882115261239
0.4943945493131401
0.6076473782485732
0.7495386004773508
0.9176821030453932
1.1316615349505612
1.4082087129364254
1.7876921938945454
2.0478212273352145
1.9022005883796576
1.3543063561154025
0.7640633086750908
0.2560408193010424
0.2591622540997634
0.2704273387249142
0.2793538887835005
0.2934126435322721
0.3182421066824805
0.3583875741390288
0.419393884626075
0.5029751768931806
0.6192096293433923
0.7670217395583205
0.9438510336731684
1.1649589614536735
1.4584070023789688
1.8636501223329125
2.05721405552818
1.831540560010478
1.2881383858048143
0.7329833451485024
0.250945947584926
0.2544847808983898
0.2662368374268525
0.2762841710352887
0.2922981455831663
0.3187781413553712
0.3607212471591475
0.4251508152522956
0.5132795329433546
0.6339636344022753
0.7846285489583198
0.966335257854584
1.1936290391558853
1.5134702344252111
1.9356220240478896
2.08920766706936
1.8164440489335216
1.2469253537704894
0.7069522377254492
0.2459847351570985
0.2501248808269177
0.2632405864294691
0.273867128592117
0.2915484948419259
0.3198057461453369
0.3629537195461557
0.4288779285083353
0.5208001329997454
0.6472079485473555
0.8030753167390547
0.9907085388528468
1.2282628387058652
1.572332233287307
1.996507107831036
2.1302287143601597
1.8219351217625304
1.2192101634244008
0.6953306761914854
0.2422882857595031
0.2471457560421437
0.2610227091530369
0.2718866204192008
0.2907678975607231
0.3203548502324511
0.3648478905238588
0.4318857591361552
0.526679912370525
0.6554677958687034
0.8137164446446256
1.0096527827040649
1.2555044104687203
1.6205907431460729
2.041048587611742
2.153763012648952
1.829497009879452
1.1998821383094735
0.6822049499762676
0.2394818227943508
0.2442145457394014
0.2581507355265008
0.2702993550321181
0.2901562788811414
0.321006884562927
0.3662452510528309
0.43465226358849
0.5349106571120062
0.6654737871212978
0.824726124708216
1.0279179625871628
1.275743058437594
1.65403570638225
2.076743128119056
2.178199218428621
1.8374387074341751
1.1831605055368764
0.6658589638814615
0.236884463568322
0.2410670778958059
0.2552636957864311
0.2687156304271826
0.289085750149141
0.3212868838943451
0.3675586504386099
0.4384219606622609
0.5429755229167248
0.675364029526584
0.8392709122023632
1.0443807574818045
1.2917551076817533
1.6863990810933491
2.1217637327670915
2.205033082498884
1.8323336363242892
1.1727706860462035
0.6603301515859779
0.2345330251170858
0.2383357399285138
0.2528937427936811
0.2671479049012638
0.2876123768134334
0.3210541960419056
0.3690491640103509
0.4423191651874808
0.5493337067608862
0.6822643652280963
0.8474750924541544
1.0566267792717423
1.313206542957504
1.7190922902259562
2.155712523145015
2.220891658179163
1.829704667003862
1.1715480416065518
0.6607903859398364
0.2318857877261556
0.2360591334208382
0.2507021859077752
0.2655700362084887
0.2865343748407112
0.3210708238024232