/*--------------------------------*- C++ -*----------------------------------*\
| =========                 |                                                 |
| \\      /  F ield         | OpenFOAM: The Open Source CFD Toolbox           |
|  \\    /   O peration     | Version:  2112                                  |
|   \\  /    A nd           | Website:  www.openfoam.com                      |
|    \\/     M anipulation  |                                                 |
\*---------------------------------------------------------------------------*/
FoamFile
{
    version     2.0;
    format      ascii;
    arch        "LSB;label=32;scalar=64";
    class       volSymmTensorField;
    location    "0.0032";
    object      tauij_LES;
}
// * * * * * * * * * * * * * * * * * * * * * * * * * * * * * * * * * * * * * // 
 
dimensions      [0 2 -2 0 0 0 0];
 
internalField   nonuniform List<symmTensor> 
13597
(
( 0.2006594217414108 0.0753928849267701 -0.0034287435451162 0.1207543314395451 0.0407945310020808 0.2482255085540261 )
( 0.2059345284270991 0.0782371284899558 -0.0036268155731401 0.1245095786262581 0.0419649718104663 0.238795510709862 )
( 0.2157659729211878 0.0825689083299711 -0.0048819331334945 0.1308520151639084 0.0444338529085035 0.220900769605556 )
( 0.2291108729408599 0.0877640481670379 -0.0063631122031758 0.1398768684227951 0.0477350459435678 0.2014588396868553 )
( 0.2406243946597042 0.0922950817121673 -0.0078120321285777 0.1482921865127832 0.0500504550828821 0.1862675976098616 )
( 0.2501043776806755 0.095828226894965 -0.0092860188138503 0.1557309188433151 0.0514389396702721 0.1744850960673447 )
( 0.2592843477971823 0.0991813878891849 -0.0111656310364018 0.162911805197997 0.0525689395699406 0.1645437299923175 )
( 0.268332129488861 0.1030498002006128 -0.013210220506388 0.1699119473453069 0.0533350492817939 0.1550274307947567 )
( 0.2776129811428016 0.107015072317965 -0.0149230095333252 0.1768577931083619 0.0541893967317742 0.1472286822120375 )
( 0.2865774895405983 0.1107685585992615 -0.0171162877764022 0.183441580079233 0.0548897314944242 0.1403562857023447 )
( 0.295692653989605 0.1146085149074288 -0.0191718745162153 0.1904667657788136 0.0553899666355587 0.1335900479514691 )
( 0.3052803512653078 0.1184526362922035 -0.0207427943077812 0.196899082715758 0.0555875274380669 0.1280940879719624 )
( 0.3138324055285897 0.1220494692169293 -0.0222830356743387 0.2015599819648538 0.0554469578626541 0.1231980039534708 )
( 0.3218341984339505 0.1256627928859791 -0.023919786992157 0.2058882004735601 0.0550286619924472 0.1181475508032293 )
( 0.3299923923999443 0.1290136961719857 -0.0260285983503356 0.2097565869685466 0.0537109414603281 0.1133916768745484 )
( 0.3376222794392671 0.1322710549669892 -0.0278580615650563 0.2121056994083487 0.0517821406485547 0.1091051532978162 )
( 0.3443164297812047 0.1351060075504276 -0.0287358889270855 0.2130903588831389 0.0495395727564031 0.1045008693515225 )
( 0.3494734991571935 0.1369157056650854 -0.0292893980068809 0.2126250020796075 0.0469672953036741 0.0999691788042125 )
( 0.3548891371773943 0.1390841280639676 -0.030301139996134 0.2113515719367916 0.0438017680222639 0.0956770584649303 )
( 0.2148773135330297 0.0908460692255979 -0.0045455661501087 0.1368324819404448 0.0357027592070014 0.2375593904517803 )
( 0.2220421185917873 0.0960981061154746 -0.006605530212366 0.1423533137000278 0.0351842918325802 0.2262306398251113 )
( 0.2344898575947918 0.1022095983492293 -0.010138141608438 0.151235326760822 0.0354032816069764 0.2045836509931156 )
( 0.2504913531847783 0.1086974440458567 -0.0122210123088866 0.1630778858066315 0.0359660454717656 0.1841548595396807 )
( 0.2623153450281502 0.1136664115571523 -0.0145351828380181 0.1726376038334563 0.0356573502863025 0.1689070455207726 )
( 0.2721498368796438 0.1174609455424684 -0.0165596515557523 0.1813966187709467 0.0352306783527106 0.1557963717601929 )
( 0.2804892303951474 0.1208356803660973 -0.0179689828164644 0.1897022145970722 0.0346906533351021 0.1439022565457471 )
( 0.2885183475024549 0.1239638011522159 -0.019465818190054 0.1978524034182808 0.0336017325106336 0.1333676220062312 )
( 0.2966431702860396 0.1265563783570507 -0.0200532003203995 0.2051728566627139 0.0328171038659741 0.1249940372005243 )
( 0.3028890777449505 0.1283637003372246 -0.0202305755760516 0.2116012547667049 0.0316769173291794 0.1175498834086952 )
( 0.3075754921457695 0.1293849503175627 -0.0203930434252377 0.2179414529031504 0.0299424984633258 0.110912757197828 )
( 0.3113454829315125 0.1299642333455254 -0.0202499695186624 0.2238694620489131 0.0275041692013837 0.1053782275371777 )
( 0.3127212675947195 0.1291705441090921 -0.0201935331635633 0.2280967881459257 0.0243441701172563 0.101815805111733 )
( 0.3123474558541015 0.1278738886001829 -0.0201202456549563 0.2314950121433882 0.0209023976920059 0.0997304464062048 )
( 0.3113801275686713 0.1267813366115585 -0.0199303069827514 0.2344408025637885 0.016903568619219 0.0987993256037255 )
( 0.3094241147798625 0.1253387031005759 -0.0204107979166211 0.2361679667053057 0.0123197519446686 0.0984203949933978 )
( 0.306798092258993 0.1237050307730464 -0.0208616999377655 0.2372108837044414 0.0077459170310965 0.097979488914788 )
( 0.3029948398897488 0.121578617993281 -0.02135660434818 0.2379385803910249 0.0029151702990421 0.098137283972521 )
( 0.299412361077999 0.1201317380417374 -0.0219888856853095 0.2384154170758157 -0.0018675552651905 0.098658315037642 )
( 0.2263402915418449 0.1059379141291049 -0.011112652566616 0.1510447631624374 0.0312536360224265 0.2340341524026397 )
( 0.2347159856253446 0.1117198000495876 -0.0154829431781423 0.1579089212156226 0.0296777756780401 0.2219782080886696 )
( 0.2483977482379458 0.1171816068708194 -0.0198364246270866 0.1679397700165198 0.0278601710691982 0.1975241765367723 )
( 0.2637206055188725 0.122020656960704 -0.0218967247084079 0.1800144721089623 0.0264867365866278 0.1756575972314088 )
( 0.2734297013312278 0.1247664923028669 -0.0240310640841594 0.1887208076122065 0.0247885593956777 0.1607976244486491 )
( 0.2810116310889794 0.1257252431002767 -0.0251558178744333 0.1963343937294666 0.0234433968328991 0.1481691255539772 )
( 0.2857167460413073 0.1254134189196144 -0.0251872681523385 0.2031817096710292 0.0216908990394225 0.1364678519457864 )
( 0.2882306722972508 0.1240143327098577 -0.024964010906464 0.2090997644907167 0.0191806669245857 0.1275404684568839 )
( 0.2897620193977362 0.1212739540820065 -0.0240647105331325 0.2142068965185102 0.0167354722051671 0.1210642194102616 )
( 0.2888414519431889 0.1177835213954632 -0.0225041480712587 0.2190950486649497 0.0135821828885714 0.1156797799086875 )
( 0.2842533605652138 0.1133037287863127 -0.0214278566782808 0.2228247243489901 0.0096300000394468 0.1129168302281715 )
( 0.2786687482009545 0.1082367268828213 -0.0205914579244176 0.2266025414009188 0.0046946703032844 0.1128265195585877 )
( 0.2719249516675086 0.1025911048984263 -0.0204822733522621 0.2304976471555392 -0.0013631122004761 0.1151531634714941 )
( 0.2639709280251883 0.0974212569811811 -0.0211130023575946 0.2340785075001728 -0.0077582342632133 0.1185197253443709 )
( 0.2569813494686191 0.0937362187242975 -0.0215507561641894 0.2375250838034394 -0.0138129284926314 0.1220613192767496 )
( 0.2508013664317406 0.090816976760289 -0.022474453314769 0.2406976895719675 -0.01958841426897 0.1254930315454858 )
( 0.2449664735803784 0.0887474007841566 -0.0234524204182227 0.2436998851881079 -0.0249803110285365 0.1287043851983716 )
( 0.2395935469696149 0.0874725014062938 -0.0242115652814317 0.2467158398706339 -0.0299100334363815 0.1319241752994863 )
( 0.2350792610138581 0.0873113310942173 -0.0247245442788 0.2501255087069404 -0.0343040504027622 0.134543304297753 )
( 0.2340525314999873 0.1173870274422185 -0.0206028311359801 0.1627688481965028 0.0272756537541253 0.2329954447909873 )
( 0.2423205983206281 0.1219555941217274 -0.0267934866336602 0.1699628720454477 0.024694010444688 0.219011179902778 )
( 0.2549764313216984 0.124285325642238 -0.0315670492565776 0.1789331234727761 0.0212678862686529 0.1929982455644615 )
( 0.2660069173295274 0.1242731677533456 -0.0328761880920754 0.1882172593087026 0.0186086310754793 0.1713231739898887 )
( 0.2699442751020653 0.1220896294117829 -0.0329385082235959 0.1942348066737775 0.0161519558419306 0.1574068889739434 )
( 0.2707217052265232 0.1178596717997952 -0.0314557373245909 0.1987463192428327 0.0140758299417403 0.1462917071638047 )
( 0.2690415717765548 0.1119982442708701 -0.0291030545014192 0.202255783321766 0.0116819813887946 0.1371269502653352 )
( 0.2647384362499969 0.1055617069234823 -0.0256646384293819 0.2051170652683228 0.0084967795307826 0.1310802637790029 )
( 0.258920026496559 0.0988808055986091 -0.0224241141289964 0.2081439672401147 0.0049485658462552 0.1278914319983898 )
( 0.2525540930842687 0.0921928748069374 -0.0194841753483091 0.2120814120566099 0.0005143190812478 0.1267682446766473 )
( 0.2441441786181327 0.085446254856475 -0.0175505551269326 0.2155132127911652 -0.0051960886738571 0.1279830987430505 )
( 0.2356059853342007 0.0798926982386296 -0.0162529251029759 0.2202698474543721 -0.0116979908431911 0.1315761656746271 )
( 0.228701482317171 0.0764718883750004 -0.0152104255799888 0.226432544261675 -0.0189054434895542 0.1355076109572159 )
( 0.223442164595945 0.0748021552014415 -0.0147196500253511 0.2330361614335326 -0.0260349665821641 0.1406362348422232 )
( 0.2199370282507084 0.0748679150637985 -0.0137580149982808 0.2397180318933668 -0.0319178931539599 0.1458429526231857 )
( 0.2179758539000978 0.0767025825830147 -0.012570278297694 0.2463076674570367 -0.0369063779831466 0.1497019700831945 )
( 0.2168295068903794 0.0796694858005315 -0.0110954758327882 0.2526149467776922 -0.04086368202245 0.1533041056792989 )
( 0.2169548739938957 0.0837135777525675 -0.009131942103946 0.2592015452336049 -0.0442059785456138 0.1569567151055902 )
( 0.2180544270064117 0.0892506576048575 -0.0069381123140631 0.2663099495780687 -0.0469966425277081 0.1605501126391973 )
( 0.2373847337014192 0.1237028228765246 -0.0319849544037764 0.171747291251658 0.023383531034591 0.2316118988534873 )
( 0.2430556228025875 0.1248035432107766 -0.0377077444451091 0.1771274243808826 0.0198779460073728 0.2147234209592778 )
( 0.2511131064331839 0.1222314398522902 -0.0401529802817779 0.1833504600736533 0.0159080988068867 0.1883031759775311 )
( 0.255455898747326 0.1170515750521213 -0.0377540820621033 0.1891601811507042 0.0125060510962673 0.1676427436934405 )
( 0.2525004154684132 0.1100622866539621 -0.0333662769687285 0.1914402495252194 0.010046100524013 0.1547437168244539 )
( 0.2480270764205396 0.1020235953322354 -0.0276290789552398 0.1927742007655828 0.0077720361900335 0.1449293485320816 )
( 0.2419122944533386 0.0933410379094177 -0.0210868035301229 0.1939980604945571 0.0053649335225332 0.137394990754736 )
( 0.2339281632038453 0.0850566561140057 -0.0145137226273128 0.1949687420512705 0.0024779143936106 0.1335603005738169 )
( 0.2271998355900888 0.078668855544444 -0.0094682122165806 0.1972319280125512 -0.0019602434510783 0.1323590165157047 )
( 0.2217900738077562 0.0737087283405815 -0.0056919817995243 0.2016618429430535 -0.0077309559627 0.1337434731460539 )
( 0.2174178623363253 0.0708558034208151 -0.0026564046861031 0.2086177908021221 -0.0149680766100228 0.1374776726674814 )
( 0.2141698264133313 0.0711523053836471 0.0004905631308593 0.2179446919033296 -0.0224156050269691 0.1426068727858588 )
( 0.2129742036380366 0.0745678804926584 0.0033462058111594 0.2286964930491615 -0.0294308038650774 0.1482880702623498 )
( 0.2140512332637128 0.0803444091531913 0.0057658711773112 0.2402160677768331 -0.0359138907778503 0.1548918409678988 )
( 0.2162154028736423 0.0872031532951067 0.0087712746110088 0.250798059674154 -0.0407008332861815 0.1608010240824443 )
( 0.2195459607738542 0.0956161797576337 0.0119742416380354 0.2609130213661189 -0.0443523534868995 0.1657870961154551 )
( 0.2237537843086574 0.105197570045503 0.0148454209392818 0.2708273183042287 -0.0470939691213828 0.170398290271366 )
( 0.229315884371415 0.1154768044753546 0.0175115790639743 0.2806459815630371 -0.0494529794463523 0.1745290309479191 )
( 0.2360413770877518 0.1273696852323201 0.0197552127979436 0.2907443247583632 -0.0515938949951734 0.1787471047848463 )
( 0.234813013442042 0.1243828583731631 -0.0404297878637842 0.1767425385671568 0.0194935332748879 0.2287648045505598 )
( 0.2358462232399247 0.1211109273953469 -0.0431172667283245 0.1793101588759039 0.0156841529387597 0.2084591552922641 )
( 0.2374378378459597 0.113367330403049 -0.0398375705706095 0.1816192508977268 0.0123608498463023 0.1810313369322649 )
( 0.2357898161546768 0.1044381007057364 -0.0317377715081899 0.1836892484189679 0.0093337207296612 0.1612597915309958 )
( 0.2296000349507664 0.09530770764394 -0.0227396603863661 0.1831848004552968 0.0074746627803094 0.1484621281049898 )
( 0.2247419738824966 0.0863226770019903 -0.0135970144928842 0.1828217630317338 0.005422204600702 0.139579689516179 )
( 0.2195549203871652 0.0787203449376866 -0.0048218645949141 0.1834253901005228 0.0024736728186855 0.1334143707267678 )
( 0.2138416493821587 0.0728868073717365 0.0029187715371144 0.1848690133677423 -0.0011458152769237 0.1308826333905907 )
( 0.2106740976460482 0.0703651669421355 0.0091992188929647 0.1891681736395037 -0.0066366878654648 0.131250192719749 )
( 0.2095600021100461 0.0713644106640233 0.0141134435869638 0.1973740638288913 -0.0138341154362796 0.134617683263536 )
( 0.2105784219889363 0.0756719720758309 0.0180383652767884 0.2092569857043704 -0.0217147434378263 0.1404957882215091 )
( 0.2134807926765977 0.0839606847720033 0.021799957427587 0.2236256673024862 -0.0292208448093523 0.147218184135977 )
( 0.2183092825594213 0.0954700632405181 0.0249364730099689 0.2395574753290218 -0.0358110433342561 0.1549985729182571 )
( 0.2246370912873099 0.1086925095017554 0.0270903334237554 0.2554704188121412 -0.0414443827923181 0.1628107218843739 )
( 0.2317258455053204 0.1227338876201361 0.028978800388816 0.2699196277160379 -0.0461531682803052 0.1695808321447981 )
( 0.2394126588553623 0.1368871491336253 0.030471394739795 0.2828355444866436 -0.0496477190870355 0.1755739020228077 )
( 0.2479167165913092 0.1513003159954554 0.0310639735489893 0.2949838225647128 -0.0526536766147045 0.1815568119734331 )
( 0.2572787553406694 0.1660615590158229 0.0305260385577862 0.306433326993167 -0.0555796163020677 0.1869466353939078 )
( 0.2678889060312996 0.1820597057764161 0.0290594237288694 0.3179844800754104 -0.0584256266726168 0.192504046056191 )
( 0.2246171478457602 0.119826744261497 -0.0426619301936059 0.1779896918127539 0.0157230383307559 0.2226286712560331 )
( 0.2218843366592555 0.1129315098255092 -0.0399085180126476 0.1779020604019046 0.0128582218935429 0.1988309986710201 )
( 0.2204565049661076 0.1023498855925399 -0.0307038910800915 0.1770310147256946 0.0105483135212206 0.1703386373731016 )
( 0.2168692775763138 0.0917456350684721 -0.0182004482135554 0.1756933262631235 0.0084372433782228 0.150614593801344 )
( 0.2126396936811422 0.0831194745927253 -0.0064809773020003 0.173966060336791 0.0066012805139769 0.1377713032731738 )
( 0.209463716835052 0.0761449881539836 0.0042235143051909 0.1729715474063458 0.0038908952042421 0.1293700470173725 )
( 0.2062198808208813 0.0718212226232006 0.0136401055912386 0.1739625062152233 0.000142460843583 0.124598211193849 )
( 0.2048370568059961 0.07123665865042 0.0212592256923187 0.1786981702731676 -0.0048342321142782 0.1236625352644236 )
( 0.2060974416385088 0.0749603250477328 0.0275945610651697 0.1873533991379281 -0.0113608023319545 0.1257978312094793 )
( 0.2094475484356406 0.0828362343029476 0.0321490580369008 0.2004885023680086 -0.0189485400225828 0.1317317339441611 )
( 0.2146737372024161 0.0948488513283991 0.0348449669302379 0.2175122123324258 -0.0269856528589604 0.1405992668208778 )
( 0.2224187396342583 0.1109875129959531 0.0366042531344963 0.2372493876139021 -0.034974681182233 0.1503280252320128 )
( 0.2323574338285384 0.1291540751767337 0.03723623326082 0.2574749553666836 -0.0418559005179736 0.1606998496763355 )
( 0.2431578550626667 0.1477447396312529 0.0364779136427862 0.2760916278260157 -0.0477706445920531 0.1706043093090097 )
( 0.2543407512829219 0.1666392725792174 0.0350467676424438 0.2935967398737746 -0.0532047865048879 0.179503998712235 )
( 0.2656718924662691 0.1847994231811292 0.0329588682852978 0.3089683283706108 -0.0573113361881604 0.1870759101637434 )
( 0.2772185009041605 0.2024138009966093 0.0299775639357074 0.3225558238832313 -0.0610497849501641 0.1945081793895103 )
( 0.2899174536719326 0.2207797744710892 0.0258524340743187 0.3356433937278667 -0.0646073645823844 0.2021877581213267 )
( 0.3038656586612325 0.2398293519765844 0.0206272681296252 0.3482703792601372 -0.0678966070362718 0.2097215200099185 )
( 0.2118257485070175 0.1119076738567916 -0.0391395377481069 0.1769585630971596 0.013080723308584 0.2142317478474245 )
( 0.2077041635699179 0.1027504058564499 -0.0306736782427919 0.1745102374135416 0.0112953446946759 0.186894825610119 )
( 0.2068296403139854 0.0918578602124094 -0.0168555989420409 0.1717455017071339 0.0095974948280974 0.1572121156826971 )
( 0.2045951034963873 0.0822651819920747 -0.0020725491735005 0.1685474328901405 0.0078147593199508 0.1371550435418503 )
( 0.2027532989255702 0.0757874887905257 0.0105551208403857 0.1658208954456753 0.0057759065666586 0.1242647096475585 )
( 0.2018548464192838 0.0723444565373475 0.0213536918060926 0.1657970339016135 0.002588748864538 0.1165084132740707 )
( 0.2014147432068785 0.073196371482368 0.0302257807987958 0.1701897331839717 -0.0021998303133643 0.1131551226520132 )
( 0.2029563109606711 0.0781368645694551 0.0361054707653328 0.1787292109281124 -0.0085330842585512 0.1154450142307083 )
( 0.2074760710144586 0.0877770046400369 0.040299056485645 0.1918562101139708 -0.0162753118760924 0.1216416118981179 )
( 0.2141807789408652 0.1023926258854956 0.0426001703871224 0.2103828212700457 -0.024803708941814 0.1308609491727027 )
( 0.2235611635474273 0.121828463790158 0.0428894484576519 0.2324990932555989 -0.0334374959629154 0.1436673784805527 )
( 0.236370650792029 0.1443531953962867 0.0415717340214229 0.2565452522771206 -0.041814197804301 0.1575456808090477 )
( 0.2499238322710746 0.1670689401390217 0.0381224122354888 0.280489073022475 -0.0497072671542038 0.170490428455775 )
( 0.263843804758997 0.1896593608719613 0.0334887162889696 0.3024483320861582 -0.0567295064847673 0.1822954117243512 )
( 0.2779801231286807 0.2114605105130353 0.0288099781071533 0.321755334942456 -0.0622604804172642 0.1923659696702912 )
( 0.2923988553669521 0.2326655782420098 0.0236371300818302 0.3389961282633336 -0.0664762530989115 0.2015301616871518 )
( 0.3073111475620854 0.2536765056620069 0.0178847190708101 0.3549299394994845 -0.07037443637207 0.2107436861583628 )
( 0.323775232878826 0.2753535062638401 0.0115114565346128 0.3701410675174432 -0.073763658319898 0.2202833561635067 )
( 0.3416870017970936 0.2971219480896181 0.0045729811826611 0.3841401821481343 -0.0766588111598612 0.2289665099280323 )
( 0.1994128313886932 0.102241284089334 -0.0301459236799775 0.1741801911678097 0.0115359993090325 0.2027233229517077 )
( 0.1958348350380452 0.0926368119256207 -0.0179388182488838 0.170109307770303 0.0104683570774587 0.1717465756417085 )
( 0.1969903202815142 0.0830884077267936 -0.0021660718607474 0.1655541889428868 0.0090659113313792 0.1412906251109806 )
( 0.1973469099478167 0.0762750309088899 0.0129939161814902 0.1616859984162086 0.0070996645126327 0.1218419365574971 )
( 0.197662182698809 0.0730089220949132 0.0255239388925447 0.1602186526921098 0.0048593454189915 0.1097481678979175 )
( 0.1985328068501616 0.0734132993677414 0.0345146200394138 0.1631591885326542 0.000766982834146 0.1043663469390508 )
( 0.2002909109032873 0.0791366536294909 0.040989820611268 0.1712242809183441 -0.0053510026554024 0.1042690100365073 )
( 0.2045754260122073 0.0894793254488875 0.0448000002828094 0.183710651627185 -0.0129240376993979 0.1104994947293202 )
( 0.2115380306665751 0.1047904307309272 0.0463984341510829 0.2014428883174961 -0.0216609474861931 0.1217691436746444 )
( 0.22126759283559 0.1256487481259633 0.0454734460345327 0.2256521394499477 -0.0317741793524902 0.135594412461428 )
( 0.2347099747901083 0.1508104089948025 0.0424766356538827 0.2528163801271628 -0.0413521182416266 0.1512950668376599 )
( 0.2508348181176729 0.1776222355904402 0.0381130544000452 0.2801580590150656 -0.0498758416809743 0.1682178685115932 )
( 0.2675602433373394 0.2045905021075237 0.0311860420327908 0.3077498367202381 -0.0584492152641323 0.1829015837905177 )
( 0.2844261221257991 0.2309174802224146 0.023637406008646 0.3332464367948367 -0.0657455457667764 0.1961689420410722 )
( 0.3013391699586583 0.2554774817503381 0.0169961243681723 0.3547797805030705 -0.0709842416849399 0.2078467553295252 )
( 0.318835852150562 0.279688266801845 0.0099993602992967 0.3745766144176865 -0.0749475296067293 0.2179585824493243 )
( 0.3368948756429903 0.3036795165836988 0.0027657958616306 0.3935281694864166 -0.0786042614035055 0.2277919064115935 )
( 0.3573675361833241 0.3282989055062941 -0.0045655173127108 0.4113519005903576 -0.0815571901335952 0.237071185709965 )
( 0.3808430801872107 0.35382358753004 -0.0120536067075569 0.4277415248613697 -0.0836538885172858 0.2450967063701024 )
( 0.1900100456423252 0.0926063694559601 -0.0174381154726246 0.1711519650944844 0.0115153605135015 0.1883463594754207 )
( 0.1888716546288119 0.0840746759934516 -0.0042499058043465 0.1658608574223342 0.0104478336853627 0.1543963173358054 )
( 0.1908949402528093 0.0769178855166737 0.011339608283941 0.1599418534476899 0.0089136041986043 0.1237151403013025 )
( 0.1930853471121638 0.0734590462496549 0.0256536572912855 0.157079901742706 0.0067088323751046 0.105908356837103 )
( 0.1950921308248932 0.0738441481328974 0.0359295502583525 0.1586888361561529 0.003319983024652 0.0967717842596769 )
( 0.1970195730582289 0.0782067598425782 0.0424886419134332 0.1646950772854536 -0.0022359763953331 0.0950141190550079 )
( 0.200360782770598 0.0880492072314352 0.0465026919619202 0.1754727515501427 -0.0094814108621378 0.0991786782854419 )
( 0.2069675146849902 0.1037418432383359 0.0478424839539626 0.1924984866657564 -0.0183354051862057 0.109991970259339 )
( 0.2163751957288217 0.1243634793736643 0.0468470591958377 0.2150610001240639 -0.0278647695697977 0.1253425367139326 )
( 0.2292922167389574 0.1499740327403625 0.0432228662820998 0.2436009981132593 -0.0383581984066671 0.142659743932317 )
( 0.2456112484273556 0.1791674392907672 0.0369877085480902 0.2760646761491471 -0.0490678163741645 0.1612379721621163 )
( 0.2634328662809082 0.2094288015969292 0.0293269576191104 0.308395197611517 -0.0587247028683622 0.1799953019950579 )
( 0.2829120490906087 0.239943076985587 0.0208809829162721 0.3391957674343382 -0.0669785018109685 0.1965026525545711 )
( 0.3027027687575272 0.2692100773103555 0.0123060274121509 0.3675315680010239 -0.0736085015874079 0.2105231998810322 )
( 0.3223921071100913 0.2968288394825036 0.0041503328437331 0.3927427874058079 -0.0786088044211773 0.2222955479127633 )
( 0.3431258154639082 0.324400840226831 -0.0037337065802401 0.4164818186016221 -0.0823658089173892 0.2324760077000983 )
( 0.3654935044178459 0.3524382512400535 -0.0114893841773629 0.4396539791324385 -0.0856668999416918 0.2415038393065932 )
( 0.3917240028015152 0.3815138103780969 -0.0193945455212712 0.4612707410580051 -0.0882381487559252 0.2488531570706655 )
( 0.4234141363391628 0.4124749670829959 -0.0271678980631869 0.4807142431024878 -0.089378004897678 0.254527457708734 )
( 0.1839116439823741 0.0849341648065723 -0.005132213880168 0.169011717243051 0.0113474037668947 0.172578426244953 )
( 0.1850855826811767 0.0783521791742563 0.0075349298719551 0.1628291020265821 0.0101031557767399 0.1372125994621405 )
( 0.1877621499247141 0.0735841576411662 0.0225998265808914 0.1569134298598163 0.0086691000859472 0.1073414709392277 )
( 0.1901016844879351 0.0730601358696884 0.0342285495635359 0.1558819281736623 0.0058314501890886 0.0921065252035654 )
( 0.1920649429432225 0.0768753275616629 0.0415256412217525 0.1593877197304733 0.0010202702109664 0.086400493379441 )
( 0.1948548404989696 0.0851076784139262 0.0461284874048597 0.1684928663843438 -0.0057737536639372 0.0887987590019636 )
( 0.200379205052355 0.0986832199378909 0.0478401401758994 0.1832759644185538 -0.0144186353537146 0.0979702581880456 )
( 0.208870827651376 0.1183649286501983 0.0468186586328394 0.2041236523824353 -0.024323266082566 0.113602170827405 )
( 0.2208261489631088 0.1433926859919018 0.0435827320499385 0.2313839401978451 -0.0346818127122889 0.1325757875342029 )
( 0.2360346699209542 0.1726449392012407 0.0376754369970279 0.2640858309038812 -0.045095616464946 0.1518368981612706 )
( 0.2541159822824383 0.2050007999813221 0.0294569094479603 0.3010646564862048 -0.0560036897728686 0.1722808020356644 )
( 0.274615527082564 0.2393718878454641 0.0196618403210749 0.3394461463372997 -0.0665552938299214 0.1922241254270798 )
( 0.2960254378372839 0.2725570422430076 0.0104186225933633 0.3740261064593422 -0.0744402357951771 0.2090091141003385 )
( 0.318380809381961 0.3047057139298099 0.0013398289514392 0.4061557975805187 -0.0807296238688932 0.2228412743526218 )
( 0.341634183259927 0.3366705281461535 -0.0078662587113656 0.4370824634726286 -0.0857175183906862 0.2335057022520963 )
( 0.3666669639704512 0.3689307784556415 -0.0162155587757877 0.4663862742018478 -0.0893475053067402 0.2425524396178167 )
( 0.3956796895645377 0.4027793758084257 -0.0242953361829497 0.4949605076434778 -0.0920068689050574 0.2496619733205082 )
( 0.4299899753254818 0.4381122656982555 -0.0322397286620216 0.5210622318882109 -0.0934358190527596 0.2544885426988033 )
( 0.4722499444221306 0.4766185569711412 -0.0398873519960582 0.5447092213120092 -0.0932954875682432 0.2577006191467831 )
( 0.1796396173915853 0.0786858301253798 0.0051421063766697 0.1671822920221223 0.0102392316439653 0.1555274169160636 )
( 0.1827688196223474 0.0743074309802519 0.0170965891523993 0.1613218777067269 0.0094055547261357 0.1199340948535968 )
( 0.1861677164788867 0.0723699422329273 0.0300792548119444 0.1568791515095284 0.0074094937595254 0.0928376829769888 )
( 0.1874676813784299 0.074327548690536 0.0385477444114232 0.1573977457443534 0.0036063152386196 0.0811194757471708 )
( 0.1892498628523984 0.0808278835765898 0.043584185222398 0.1628295800857551 -0.0022731416638862 0.0794906228050304 )
( 0.1929073257886973 0.0924371016812044 0.0460029696073185 0.1748165502000383 -0.0102955186997743 0.0864761208892372 )
( 0.1999650641033502 0.1096674005508793 0.0461729553004839 0.1933236410309016 -0.0197497285770359 0.1008799137231153 )
( 0.2097779727705239 0.1327866535020764 0.0436013722819042 0.2185809501311217 -0.0303735370044828 0.1205480744952605 )
( 0.2237905026656683 0.1611032599960709 0.0385268257710058 0.2507357970643735 -0.0414850953311188 0.1413093168760742 )
( 0.2404217272453371 0.1932714956749793 0.0307028981020985 0.2883076210977273 -0.0524704169807423 0.1622394518735897 )
( 0.2598537951113347 0.2286173224771603 0.0210819589340554 0.3298675271122077 -0.0634707062761962 0.183591650320793 )
( 0.2827665018051596 0.2664533906181787 0.0107096640751314 0.3730042523014195 -0.0734693071906219 0.2034174108204433 )
( 0.3069869898132791 0.3035316987373131 0.0004854871394814 0.4132987284831688 -0.0812347412739852 0.2191778524456875 )
( 0.3334811460654158 0.3405392542707224 -0.0092195770204315 0.4517219572251856 -0.0873775970442573 0.2318208154663506 )
( 0.3613980527263271 0.3779396706995215 -0.0185553787623172 0.4895811678824007 -0.0923006016714848 0.2417169895953107 )
( 0.3915175530217026 0.4155142885032588 -0.0270037476520168 0.5254223839731774 -0.095675140115029 0.2488151122158297 )
( 0.4273588714129862 0.4554567064555826 -0.0348637049653946 0.5595715358014605 -0.0972346771020731 0.2533598873066079 )
( 0.4720847154092015 0.499253689315595 -0.0423948520116462 0.5913833894319116 -0.0972584209562938 0.2560703154234017 )
( 0.5279112838273847 0.5475152321197334 -0.0502003540613202 0.6201590187416818 -0.0964026311655304 0.2572533168216128 )
( 0.1781505340481436 0.0735855049369703 0.0128956913444552 0.1666306012019788 0.009735829435203 0.1396267475260696 )
( 0.1804696959942148 0.0712172966195488 0.0229088142481817 0.1612826481309953 0.0087361002408849 0.104605961250851 )
( 0.1831868923709875 0.0720480480506153 0.0334922391272032 0.1585923226978932 0.0054683416706566 0.081196313446935 )
( 0.184597973350247 0.0764492730290087 0.0398278653260171 0.1613624870883934 0.0006563237394874 0.0734086474340064 )
( 0.1871367530403641 0.0857038895728067 0.0433390489571401 0.1688771551658479 -0.006126645584972 0.0765986168108646 )
( 0.1919497922046297 0.1004472801490704 0.0443261068803773 0.1831558599638164 -0.0149600140815872 0.0881371842011639 )
( 0.1998253825684921 0.1209325262954143 0.0431478275946497 0.2049299607254366 -0.0249530356675628 0.1061141988579695 )
( 0.2103335507890054 0.1466420628236268 0.0392412163714814 0.235132397243665 -0.0363984882316793 0.1285265585335683 )
( 0.2246712640133815 0.1772417892412183 0.0324762143956335 0.2727703578302186 -0.0482356632306858 0.1506307993900328 )
( 0.2426892797661134 0.2121367277137173 0.023594198897606 0.3150939556186947 -0.0594086606852799 0.1721037866787552 )
( 0.2643888263309884 0.251216668468627 0.0131051253838902 0.3625182484940332 -0.070814994355281 0.1941604074403326 )
( 0.2893848952790222 0.2925441202766505 0.0024471495594145 0.411278651042175 -0.0801402721507674 0.2129832065324365 )
( 0.316908819457641 0.3342376083918685 -0.0082466061922472 0.4584462773634021 -0.087689314727127 0.2275172385688077 )
( 0.3479404311985305 0.3773399649402999 -0.0184490219667033 0.5053196539123098 -0.0936888890803671 0.2386324913341698 )
( 0.3804608274482258 0.4198818208560376 -0.0272140681427308 0.5497402392562278 -0.0976565746558117 0.246238475627892 )
( 0.4166422822071093 0.4633869493511061 -0.0353553222203933 0.5918110256249973 -0.1002082323966128 0.2511411367973086 )
( 0.4613526070157929 0.5119509205713332 -0.0434806806909806 0.6340562652438254 -0.10152965981177 0.2540249537007331 )