/*--------------------------------*- C++ -*----------------------------------*\
| =========                 |                                                 |
| \\      /  F ield         | OpenFOAM: The Open Source CFD Toolbox           |
|  \\    /   O peration     | Version:  2112                                  |
|   \\  /    A nd           | Website:  www.openfoam.com                      |
|    \\/     M anipulation  |                                                 |
\*---------------------------------------------------------------------------*/
FoamFile
{
    version     2.0;
    format      ascii;
    arch        "LSB;label=32;scalar=64";
    class       volScalarField;
    location    "0.0057";
    object      k_LES;
}
// * * * * * * * * * * * * * * * * * * * * * * * * * * * * * * * * * * * * * // 
 
dimensions      [0 2 -2 0 0 0 0];
 
internalField   nonuniform List<scalar> 
13597
(
0.1373961857735083
0.1384123582555237
0.1410231048885183
0.1472308848346974
0.1533818488630577
0.1567014142530408
0.1587753739384113
0.1597083062724341
0.1597427927466604
0.1586345143584134
0.1566370024345951
0.1543440272895234
0.1514045406204771
0.148330968161703
0.1456162699593077
0.1435077612379623
0.1421476230338803
0.1401893627101735
0.137979880436158
0.1367512520972474
0.1370989949590315
0.138928019384756
0.1452215603785613
0.149400296193009
0.1517695778152485
0.1532690432363477
0.1539827047966165
0.1540445804630517
0.1531301042891811
0.1517687374498025
0.1505812653696468
0.1494083987016728
0.1486548006667818
0.149179758948093
0.1505801502428812
0.1524309174762706
0.1540350474588429
0.1552241236347659
0.1348911212841041
0.1346685656141013
0.1361284048320413
0.1409950700934317
0.1431345507681438
0.1444964420737745
0.1448847757449166
0.144757277918084
0.1443732216815819
0.1443148510682966
0.1447503374077398
0.1464837693033735
0.1492290717614696
0.1521520633184055
0.1556731678007114
0.1588515463844478
0.161398104554783
0.1632972625573004
0.164572715319984
0.1324342836676442
0.1324117511524507
0.1336946262141177
0.1372722456689235
0.1387868769956226
0.13957621357471
0.1396558718008532
0.1402726406175277
0.1411301674523656
0.1430904101520485
0.1458248275030666
0.1494530756832816
0.15419392695096
0.1590804725783902
0.1633776042715619
0.1670127117887346
0.1697592893726136
0.1723283757580545
0.1745396751693406
0.1325754456996128
0.1325315957710013
0.1338865503532501
0.1375146040228822
0.1391671484834427
0.1401403698404429
0.1409317159673606
0.1424913057731983
0.144610307596389
0.1477620269061186
0.1525286365177885
0.1585380738310225
0.1651649514243228
0.1718059103903438
0.1774188045660741
0.1821921086860056
0.1861610816620184
0.1900449965993869
0.193701243060863
0.1352145766661427
0.1354871408726862
0.1367941759883882
0.1405306272047338
0.1420482628970208
0.1431618549144836
0.144782480169716
0.1470139223784291
0.1504938531390555
0.1558287099346907
0.1627912050404784
0.1708918909203614
0.1791591237947186
0.1859156018425427
0.1919558023690385
0.1969244495987994
0.200880579271717
0.2038654613834961
0.2063981627312807
0.1394215552221109
0.1403804687062554
0.1419701730178292
0.144666714900488
0.1458166826590989
0.1471234200954859
0.149063570839803
0.1522793214220763
0.1574023623426069
0.1642773181238172
0.1722062583071578
0.181128550725538
0.1894696519916034
0.1956080703622713
0.2005599750994995
0.2041917435648895
0.2064125804954099
0.2073542336641383
0.2073684430368941
0.1452453876888499
0.1459135534316834
0.1469899783704411
0.1489803257357561
0.1499474181689438
0.1510356064964271
0.1536953108454087
0.158228542388591
0.1639643638555095
0.1712582999855748
0.1793186066541285
0.1879530071431399
0.1946664469700902
0.1991503003374312
0.2023327925261925
0.2038326834913251
0.2040034786764294
0.2030068262785865
0.2011452497768854
0.1510575090083211
0.1508153132445696
0.1512978878022667
0.1526813924543371
0.153313645457772
0.1551051848673706
0.1583562589850493
0.1630152398126542
0.1688304360382132
0.1760811381949312
0.1835912394598502
0.1906502057782048
0.1955449913800006
0.198159279113919
0.1996847679323743
0.1996028702364311
0.1981087469139765
0.1963518164396978
0.1940649976644971
0.1563728330825597
0.1552716694920142
0.1549508539860227
0.1557540447333671
0.156300053959212
0.1581910740778725
0.1614826313812736
0.1665691739458583
0.1721528998964271
0.1787587103449149
0.1853598564573704
0.1902892736644002
0.1936855670820619
0.1951667130666178
0.1952127746741666
0.1942861467880926
0.1926695831210118
0.1911854954546915
0.1896255153611344
0.1607482450020269
0.1583721611149628
0.1578704916219695
0.1586248159122953
0.159022200485439
0.1605437195804215
0.1639429373589148
0.1689309743344423
0.1741875926510296
0.1797263582676228
0.1845231598238979
0.1882593260223802
0.1904595126652021
0.191209406502908
0.1908243396341839
0.1899870178916026
0.1895187490767609
0.1891241116745675
0.1887229354101474
0.1639391211291583
0.1606246866087727
0.1600920161313728
0.1607343100904459
0.1609459652907164
0.1627797155266515
0.1658893698029215
0.1695900948228667
0.1743512403846501
0.1786561999347566
0.1820679826752745
0.1852180371827048
0.1867862462439692
0.1876712035690627
0.1880974843297945
0.1883647355452088
0.1890422905387055
0.1899291785640479
0.191165938339891
0.1667137963809948
0.1636397233573712
0.1627650894368611
0.16204545575647
0.1623960118673106
0.1643399862611899
0.1670015960130192
0.1699996117569696
0.173944921337329
0.1772359908861428
0.1800728275723863
0.1828087791265632
0.1844830512959004
0.1859503036253619
0.1874947468196382
0.1889609545096005
0.1908877788892674
0.1934770647784674
0.1968667335310562
0.1699253279987534
0.1663686638529576
0.1649989743396785
0.1632981555860057
0.1636269425066179
0.1650402802013365
0.1671211012756528
0.1698621384585048
0.1728890515660102
0.1757361092895403
0.1782270237297892
0.1808657377876716
0.1835141651989619
0.1859436541581282
0.1883885390251434
0.1913136743995147
0.1952246630368965
0.2000479353278957
0.2058300315769638
0.1726586427414137
0.167926686787338
0.1662401811734881
0.1649630490641743
0.1651657937278754
0.1654626331081361
0.166579104230934
0.1689916951505073
0.1714282817210241
0.1737567721673221
0.1763611164788692
0.179791735698206
0.1836211163567351
0.1870522371813442
0.190902285707894
0.1958263918387839
0.2019180398916568
0.2091827197107001
0.2185376871332116
0.174270979332104
0.169442080754122
0.1675672752282945
0.166498095101005
0.1661499705543365
0.1658941801674347
0.1663985835478175
0.1677469251734758
0.1698163942416802
0.1716524669904258
0.1750047665622121
0.1801431894018098
0.1848024343407893
0.1892625422270341
0.1950749551805657
0.2020118801426771
0.2105067239033369
0.2215415506169522
0.2370264858969731
0.1755129080245083
0.1711797721813767
0.1689663845753902
0.1676334846706322
0.1664522701613534
0.1656649133756833
0.1659135368959924
0.1663875346940487
0.1678767124606429
0.170238740540132
0.1744541938429813
0.1807121386177145
0.1865311331566627
0.1924577594390338
0.2004464709914202
0.2097339578015474
0.2214822558713217
0.2383238401890656
0.2609330831806554
0.1771687483867686
0.173004950058286
0.1705959508284823
0.168625918560112
0.1666303745319028
0.1650402546697051
0.165058459912635
0.1651522453218374
0.1664510942261643
0.1696387576593995
0.1744472022471777
0.1814865225215739
0.1890653073052591
0.1969620702152812
0.2069058343832411
0.2188060423492366
0.2355245742497881
0.2592724034070936
0.283582423232364
0.1791414341962154
0.1745697503797778
0.1721980470868581
0.1694194606774379
0.1664405835508463
0.1643456063474138
0.1638869264383289
0.1637732154726995
0.1653299909748226
0.1692633234033431
0.1753087184661624
0.1831949259222593
0.1923474173575867
0.2024716671808126
0.2144433009774735
0.2300466836352012
0.2532578443315766
0.283519797487514
0.3020137275778203
0.1806981411506915
0.175875625633086
0.173323210003922
0.1696748488471976
0.1659364445913199
0.1634772827947433
0.1625802272731239
0.1625493788010122
0.1645448733656429
0.1691316016761981
0.1765833079790682
0.1858166782635104
0.1963424448571847
0.2081853388775928
0.2233902898300478
0.2441497806372886
0.2745771832232705
0.308932259549494
0.315318103784151
0.1827254253915113
0.1773651580211939
0.1739630028141076
0.1695696561288394
0.1654049120122545
0.1624762523938102
0.1613455155518507
0.1616024389811075
0.1640997644034797
0.1693224988934422
0.1776657963242461
0.1887289997129889
0.2006962617097114
0.2142027615099472
0.2331724894525884
0.2604955255517507
0.2979530171300144
0.3316036131541531
0.3136156919657514
0.1846657455760781
0.1787110305331492
0.1745408344899806
0.169700247865663
0.165018998821308
0.161578729747056
0.1603916407950588
0.1607561883204447
0.1636240247265987
0.1697526311490772
0.1792408837222936
0.1916117115817956
0.2050257796161389
0.2213586467579181
0.2439258903465743
0.278208131947247
0.3209407342007901
0.3492878576722138
0.2898102249025185
0.1856858603189376
0.1795365313901445
0.1749368634947269
0.1696306203081443
0.1643048480170543
0.160779699946905
0.1598353770287403
0.1601826924999247
0.1633418452139597
0.1705898433471872
0.1815844292084956
0.1948074771119229
0.2095386317720461
0.2287399898842689
0.2567083877066269
0.2977299365931523
0.3429653553817138
0.3520951093468399
0.2621072004463642
0.1867948171950945
0.1800907429948129
0.1749688894595456
0.1693129655581491
0.1632892832614925
0.1598231884687027
0.1589485009932975
0.1594980219308005
0.1633521850885918
0.1715934116170646
0.1837545535295693
0.1983630558739736
0.2149369641231276
0.236720545259326
0.2701552798368294
0.3174875887158462
0.3627362911776274
0.3430996490100245
0.2367154147255877
0.1881112309805563
0.1805730583529801
0.1746253895277913
0.168475172133742
0.1621182993969807
0.158662807728268
0.15767722938888
0.1587889201247348
0.1636492868245064
0.1725746175623822
0.1858066946570446
0.2019882188097037
0.22051414708988
0.2467436289636205
0.2848153655083925
0.3359886528660178
0.3764808566188707
0.33285152928388
0.2100532438923563
0.1891805320117303
0.1809086033276571
0.1741657936032661
0.167366209898376
0.1610859203363015
0.1578662692765862
0.1567287621795309
0.1583481363607826
0.1639860204075075
0.1737166948552098
0.1877895992231449
0.205134127774182
0.2258699400154717
0.2563159701863326
0.2996282098773577
0.3536573415702789
0.3777806664437602
0.3134952386018518
0.1891399068664302
0.1896832439776456
0.1808426883859083
0.17340417474731
0.1663180169859798
0.1602064804378936
0.1570672183336135
0.1560761880514302
0.158248284620266
0.1643914463005494
0.1749996485350878
0.1897473782147948
0.2081536633327022
0.2310922311696881
0.2644611849029725
0.3131768239443102
0.3686008208418189
0.3759301913920577
0.2924452946072018
0.1717852747287035
0.189790755731027
0.1802233310468496
0.1722081942342285
0.1654796685646532
0.1595785596226138
0.1562630594688799
0.1557293087460803
0.1581770482028582
0.1645838328971681
0.1762512873304111
0.1921120160224069
0.2111722378591178
0.2360216468610003
0.2729574837569196
0.3272361390473808
0.382254782417858
0.3795117192752078
0.2786679375226569
0.1576735019370616
0.1894933594577438
0.1796747087317937
0.1713570613376567
0.1646327094194121
0.1589016789527569
0.1555175838663667
0.1553510806893586
0.1580392785273923
0.1647354467349979
0.1770468959607013
0.1938466202447408
0.2142819023384242
0.2422906165364183
0.2821241493526943
0.3399689708194563
0.3922262190234431
0.377627621929424
0.2659579766678758
0.1478825778911005
0.1888481030240757
0.1788162997906128
0.1704236812479537
0.1635863419604896
0.1579799294649348
0.1546523552255284
0.1549058697974566
0.1580533387740695
0.1653280558025907
0.1777200066504644
0.1948454324973779
0.2174264781251647
0.2478405706118519
0.2905323146866398
0.3510905992839649
0.3889381422387535
0.3601455671996519
0.2527110011971165
0.1414987535280894
0.1879104035939381
0.1774695004520669
0.1691861626928335
0.162425583399144
0.1568828422630195
0.1538761804468041
0.1544926967187319
0.1581424382504271
0.1661957269408339
0.1789660854813264
0.1962869062771713
0.2200401131578491
0.2517398657843901
0.2979291001213173
0.3606458471504518
0.3834327212021413
0.3420622071086591
0.2411693891814466
0.1369952585574199
0.1868193390593636
0.1765238968145824
0.1682897977789638
0.1613181316116791
0.1560622707218294
0.1533485356083754
0.1541569290716708
0.1583661245144176
0.1670045436794365
0.1801897847490961
0.197883208394237
0.2221025936728449
0.2553895756789622
0.3068443211399635
0.3693817913699171
0.3851971510345647
0.335770462616276
0.231665234592594
0.1320564085624923
0.1854978343753562
0.1756282944820489
0.1670773990192862
0.1601856310537577
0.1554320118828215
0.152741479682269
0.1536150230268117
0.158458755887462
0.1675559092772644
0.1811837701575647
0.1995778416399439
0.2246372175709232
0.2589176861664249
0.3144075373343063
0.3775172598405151
0.3891631064628028
0.3336769163863505
0.2240752760422647
0.1263897938914266
0.1839012571051011
0.1740186682353142
0.1653816751264714
0.1589616941408692
0.1546687978773247
0.1520883563489473
0.15302919591451
0.1583270364080621
0.16797151326109
0.182022007355038
0.2013605034861303
0.2273259382605886
0.2621444809183991
0.320130079295681
0.384988807624671
0.3925700598086259
0.3320927150128686
0.2193659358921252
0.1226741157364264
0.1823089767723457
0.1722325385512654
0.1639721802025944
0.1578631834011551
0.1539844368391337
0.1516910224252773
0.1527411029593213
0.1581400251730871
0.1681526729549253
0.1825117202291242
0.2025084342556812
0.2291611666631959
0.2651180280989193
0.3253025750934737
0.3906386938043825
0.3941090311463958
0.3293023482307251
0.2155791934382465
0.1202030592740012
0.1809146290666557
0.1707580573132086
0.1628227080732978
0.1569533243856494
0.1532420030201519
0.1511544635641036
0.152413142072349
0.1580253681269174
0.1683032201318582
0.1828143223200261
0.2031899595895431
0.2304749970179403
0.2680399158284947
0.3285835678819212
0.3938805456004966
0.3957043956874519
0.3260461988333038
0.210848082910118
0.1172248818785088
0.1796068003849222
0.1692135513665248
0.1616948738771655
0.1560808757872551
0.1523940627866931
0.1506751068857497
0.152388391292729
0.158258891423545
0.1685828055164562
0.1831844178042578
0.2037397011980681
0.2317954189605027
0.2705586535916993
0.3316516056520361
0.3957802208418006
0.3946851551936549
0.3240277376453584
0.208811699285728
0.1149056846256638
0.1780050448717302
0.1675383130977979
0.1605009428823043
0.1552421485595771
0.1518222567282676
0.1503136638322569
0.1525033647540876
0.1585389914944784
0.1689790623163446
0.1835667633402066
0.2043776731749712
0.23326883774901
0.2735589471540649
0.335137047109236
0.3953992970627226
0.3920958407348069
0.3212246308991026
0.2076618384894456
0.1135711162317026
0.1761278505869933
0.1657009845133089
0.1591641839586997
0.1544661716366669
0.1514466404225197
0.1500730713001407
0.1523999995203093
0.1584008387963385
0.1693383261759478
0.1839948573166644
0.2048884639606595
0.2344290556357283
0.277072294547577
0.3394033138901497
0.393990868659874
0.388636193646483
0.3171399693982615
0.2050153828675738
0.1126407346933184
0.1741994281161946
0.1640046367286495
0.1578542066153216
0.1535854300441107
0.1509988625503931
0.1499217824190966
0.1522182418493955
0.1581270877234009
0.169265367375119
0.1840820882972131
0.20499133217466
0.2347675610494195
0.2788382513949261
0.3425485561514733
0.3933358893963659
0.3844694481254898
0.3142752249221359
0.2034667956673609
0.112167357158292
0.1725418510352361
0.1628095846197781
0.1567872694502009
0.1527465710293709
0.150522856072314
0.1496412185378575
0.152068643258604
0.157938886665181
0.1690809481583428
0.1842969578016026
0.2050719499792876
0.2351475280640738
0.2799873521244591
0.3434807359403389
0.3912471637091659
0.3794611137393488
0.3108867285385499
0.2017419999718661
0.1118328262224507
0.1710590999017011
0.1617506542478834
0.1560185600961221
0.152037788634449
0.1499209999674014
0.1494320609186362
0.1520461397558518
0.1579002228542139
0.1692659827015553
0.1849432172415742
0.2054260408065329
0.235626643300625
0.2808578607784753
0.3430863514778852
0.3891473678315271
0.3762594403107359
0.3073588114634292
0.198784434394169
0.1108721479943795
0.169317127971608
0.1603494495486852
0.1549940928621432
0.1511664455943786
0.1492398946083636
0.1492413613440804
0.1519332388243273
0.1578724295198867
0.1692040982911558
0.1850044828731674
0.2055391285679617
0.2353940016442276
0.2805472075361127
0.3434692323939756
0.3895547939714079
0.3751295866914204
0.3044701358038904
0.1960897561767342
0.1092825244657317
0.1678001506042632
0.1590047994493792
0.1538101339159399
0.1502818056759512
0.1486349989295446
0.1490274181316444
0.1518376774345459
0.1578896402893242
0.1691907770603537
0.1851848030961193
0.2056341388245095
0.2355423136897811
0.2807281167273075
0.3438781658315928
0.3874850459709795
0.3710244433169595
0.3011769872167341
0.1941114783386835
0.1082746875738576
0.16424653608636
0.1616979247214308
0.1558330903458991
0.1483509583601324
0.1418296900950256
0.1347625196279314
0.1274610764382877
0.1201856746094676
0.1133179894566619
0.1070385189616652
0.1016332163370122
0.0976826036745658
0.0944303425277321
0.0922419126251009
0.0917919232123935
0.0924232537795952
0.0945858079935402
0.0983700755587921
0.103125538768887
0.1619869244851363
0.1578639181423105
0.1485420005782112
0.1388824195897526
0.1313539801453794
0.1237840523606005
0.1171259668434233
0.1108358673912407
0.1054075450896101
0.1014290125716424
0.0994362016574405
0.0997800130468091
0.1018738977284369
0.1053458858290809
0.1103640350686153
0.1161914206135417
0.1227918644184466
0.1300142467953261
0.136893268199172
0.1602323390457024
0.1543832639035971
0.142040264500026
0.1310412905113012
0.1232323135881847
0.1161538228247541
0.110629158910715
0.106556409443902
0.1044739010524704
0.1050733190832895
0.108707204503537
0.1146503744112123
0.1225979558812501
0.1318458413792164
0.1412500183920014
0.1501064530990574
0.157635521290715
0.164055652603742
0.169809606463353
0.1597836436864278
0.1520438068681811
0.1366137623914976
0.1239520351180359
0.115587900826926
0.1093846829469369
0.1061471373287888
0.1057298965095665
0.1078624754499171
0.1127609673272498
0.1213116695450214
0.131839889754925
0.1435138338056336
0.1551045314929997
0.164391323930156
0.1719786154012627
0.1780446731117546
0.1833632743618242
0.1887008709587282
0.158809805666061
0.1480806487371724
0.1307300415074628
0.1175017642330549
0.1094114553706083
0.1052578363784699
0.1056405438031117
0.1096268907335444
0.1167813237897298
0.1267743542324114
0.1392690759714283
0.1522601835082493
0.1649519332520366
0.1763883260765097
0.1848152601277963
0.1913344940843976
0.1966143058487535
0.2007076969373185
0.2040092610572345
0.1557675744455158
0.1426017903769431
0.1238396349393131
0.1116393128264918
0.1063172168446603
0.1060686762808599
0.1107978158031175
0.1196231235673354
0.131290102231708
0.1449525905754037
0.1593456275630624
0.1726567940079661
0.1844643951197385
0.1935059407205967
0.1998244318505992
0.2041404610181124
0.206573044222938
0.2078910376056059
0.2081950533841462
0.1529521930951679
0.1370681126907131
0.1173218558602923
0.108329868147515
0.1073448414172348
0.1116766694843758
0.1207403247114593
0.1331166192226731
0.1475189785928304
0.1620437759036499
0.1757808503995532
0.1876335976996369
0.1965632187007742
0.2024261370048215
0.2056567481529519
0.2068790251755137
0.2062766752408026
0.2046618015429475
0.2019122049169043
0.1490047331874611
0.1306158601711035
0.1132641404837022
0.1084007979464324
0.1112405695918596
0.1197222369288908
0.1322825690836321
0.1463745612621964
0.1611462810955417
0.1745432116750024
0.1863685708998868
0.1955259216971446
0.2005700735529391
0.203151306195392
0.2034738244171556
0.2019566049192176
0.1988950051301753
0.1947093710622713
0.1895139669205469
0.1443109756296546
0.1260221921422307
0.1118987443570122
0.1111143132444866
0.1175593580874041
0.1286943617953565
0.143037921977448
0.1578797109099539
0.1711870544426382
0.1823258506208459
0.1913702612988957
0.1971955731492539
0.1992588657290761
0.1988451394507421
0.196593376251683
0.1929376342797775
0.1881237901919711
0.1824724978035297
0.1759841317139294
0.1390265014468681
0.122064920031009
0.1121783024427922
0.1154677026781601
0.1245221974339213
0.1372686357956256
0.1517403870937066
0.1656204300139816
0.1772826603039825
0.1863856814470142
0.1921135412815155
0.1945289962123912
0.1944078525480216
0.1920155328035924
0.1879945195130089
0.1832647503662085
0.1775839052884544
0.1712291588421455
0.1641409922530928
0.1333213594173524
0.1188448209879758
0.1137029807598135
0.1202383308045877
0.1311835683315606
0.1444795221684053
0.1576565732349678
0.169761501194118
0.1798421404001711
0.1867361658288338
0.1897899747043065
0.1902522995237131
0.1882155254250327
0.1844121336709711
0.1797888048360139
0.1744767471673299
0.1686299903209112
0.1621749283195515
0.1553296490582673
0.1290149041642386
0.11713031374568
0.1155468769089495
0.1239398977936452
0.1358530934749575
0.1489899198909831
0.1608528579211865
0.1718455479945232
0.1800715448589619
0.1845927091987863
0.1862283693236049
0.1853637667285188
0.1820556062016344
0.1775974543729925
0.1727525591527035
0.1673868739087165
0.1618571292324425
0.1560311342885703
0.1502783826905246
0.1256840411028357
0.1160435560943876
0.1175964885671034
0.127310787470228
0.1393328767750023
0.1518340511154013
0.1626661180190652
0.1719752631002712
0.1784384681675404
0.1814364365732155
0.1819701785250225
0.1801929196446821
0.1765562518141597
0.1722713899156054
0.1675447233845232
0.1625573247721023
0.1579307982358243
0.1534158918852259
0.1490452339043975
0.1229318765842943
0.1157089922364203
0.1195614223994368
0.1300530955660542
0.1418258128962157
0.1532524569431927
0.1631643708968078
0.1710625655816614
0.1762396283311752
0.1780509186562209
0.1776941420831445
0.1755659960471654
0.172134148156137
0.1682324993107274
0.1641046496921131
0.1602522232810067
0.1569193573099032
0.1541061959065855
0.1515314213066632
0.120905589615582
0.1157300562587743
0.1209991461747853
0.1315164801331664
0.1428170708465622
0.1535219990380806
0.1626708338426383
0.1693997222841484
0.1735101500699774
0.1748338549753458
0.174298516080323
0.172098663749353
0.1689490605785833
0.1656627339582388
0.1625446072292429
0.1602477398313422
0.1587419582729089
0.1579304373787921
0.1583848553426466
0.1193432996169811
0.1155810372064879
0.1221506222462785
0.1321748188446041
0.1430132965464124
0.1531753641920825
0.1615452081932024
0.1677110794030479
0.170849523539501
0.172044075233052
0.1716748843201294
0.1696397031871093
0.1670251321197464
0.164672495763161
0.1629839961847198
0.1623209024509196
0.1629186620095852
0.1650733486701748
0.1699900050126551
0.1182710619160761
0.1154803283394916
0.1229673745630716
0.1324049551450977
0.1430131669837383
0.1525056012978714
0.1601930532775965
0.1660617631228048
0.1687754592014486
0.1700115689071516
0.1695058167389866
0.1678667439850079
0.1662664668912533
0.1652122925284839
0.1651123118592806
0.1664994615260052
0.1696655877138794
0.1760378744548394
0.1849257290609087
0.1172714618024926
0.1154926570478904
0.1239026433777637
0.1330254010786376
0.1428006279381365
0.1518697917413348
0.1592992900714606
0.1642896851133369
0.166755351812053
0.1682600286536271
0.1678122278127068
0.1669725345634019
0.1665030547235655
0.1670832803956627
0.1688808743625619
0.1726778336331172
0.1796202824380668
0.191256652241971
0.2007443990405357
0.1164192634912632
0.1154029123460226
0.1243635628881162
0.1335770927062297
0.1426202606617197
0.150765585885707
0.1581693306342858
0.1628357612672606
0.1653123350562232
0.166928505735551
0.1668495544901263
0.167030364808504
0.1678877042880204
0.1700108903520716
0.1737183420393453
0.1807907103490355
0.1927954244875925
0.2087687198640095
0.2130335029314292
0.1159795439855126
0.1157055358864301
0.1244313082966972
0.1334385188977079
0.1423876224107901
0.1498882940645357
0.1565593700123827
0.1611353002952243
0.1640770500044182
0.1658471235715242
0.1666087758824247
0.1680791030692655
0.1705397518038683
0.1743227860096623
0.1801136078382824
0.1909869287043744
0.2092421344473092
0.2263545942121097
0.2207818779615285
0.1156459693983319
0.1162410268819549
0.1249234881775317
0.1335365231595633
0.1422102509529808
0.1493078356126766
0.1553888545605921
0.1600729075112313
0.1629661565651767
0.1649771352342877
0.1668868200306121
0.1695125766345489
0.1734916828082242
0.1796082034125162
0.1889502979281924
0.2042780446702939
0.2275055815090082
0.2434339247719876
0.2208429521496659
0.1155904402700529
0.1167209977587779
0.1257772474632759
0.1341100149859866
0.1421307047624116
0.1489737616201514
0.1547166159310917
0.1594780194731092
0.1623663952496346
0.1647760715167167
0.1677127080940552
0.1715138517543686
0.1768881652333381
0.1854228198264645
0.1983757513724334
0.2198099787156853
0.2484379539609819
0.2617822875795464
0.2069150214440234
0.1161041734026121
0.1171805435639312
0.1263465355732242
0.1344308232489273
0.1416388222736161
0.148407095730554
0.1540076853568115
0.1583876024747777
0.1618322453569739
0.1649618704227009
0.1687496997476875
0.1741778134469447
0.1816058426292023
0.1924779905923176
0.2100150854005183
0.2383756764530336
0.2692313559425369
0.2659845156751075
0.1891460762910934
0.1171787853058888
0.1181297536706937
0.1268802727677488
0.1347052329565672
0.1415498749880868
0.1477390474612787
0.1530014819903535
0.1572395300687012
0.1611539914112218
0.1654368156939283
0.1702316523005941
0.177119771119772
0.1867778993714235
0.2004523018096287
0.2236912540548354
0.2582411661278443
0.2867750793563395
0.2600857501803786
0.1751774250716966
0.1186988803791832
0.1196746326668049
0.1279933640866518
0.1353237831795536
0.141919445452176
0.147519677417938
0.1522364063164503
0.1565143083796285
0.1609942283189954
0.1662772922470383
0.1725429785023405
0.1807688916579178
0.1921662275976247
0.2101422949486975
0.2390631024397191
0.2762161826357915
0.2997715318923461
0.258373159462223
0.1614419233116007
0.1204152766661423
0.1211201052903169
0.12926505292675
0.136172166030327
0.142270079094733
0.1473854835701205
0.1518202663487768
0.1561892396668746
0.1612986309604077
0.1672429724354986
0.1746723646013211
0.1844772012237871
0.1974754369633672
0.2195198078748004
0.2537047049637006
0.2922025890615484
0.3017192452988839
0.2459568410058075
0.1479321930307151
0.122727729762446
0.1229913362727915
0.1305230323784377
0.1368989782659807
0.1425163625741526
0.1471404532177574
0.1516015853497968
0.1562412262468993
0.161706634136051
0.1681342310859309
0.1767783527930077
0.1885235195288699
0.2036816272679729
0.2285527699944197
0.2666964867563985
0.3073003401303202
0.3048342679306418
0.2338935438220232
0.1365009295090988
0.1254280491567311
0.1251805774968509
0.1318941135212441
0.1375412455311886
0.1425413624044778
0.1470262904550522
0.151378545140874
0.1562651278857932
0.1621346698189485
0.1690853702572083
0.1791818861864141
0.192521884258117
0.2105043567245459
0.239339685235551
0.2821580240971344
0.3245392817214199
0.3135653606654485
0.2294423662219634
0.1301075427772944
0.1279316035952206
0.1272308553070873
0.1332084996532673
0.1381342881713228
0.1426019734971143
0.1470937840210343
0.1511985214716444
0.1562946375214738
0.1624022655814119
0.1700676023390417
0.1811036368217216
0.1958782022041799
0.2172219274513896
0.2494327712427971
0.2954943195933732
0.3345664966014343
0.3147280810049799
0.2244844957260897
0.1264368112127893
0.13043157415804
0.129640159217121
0.1346235081673459
0.1387158250747521
0.1427376698944308
0.147003522438906
0.1511297887667797
0.1565504298288836
0.1626981387497575
0.1710199826985788
0.1831284614259255
0.1999024384668043
0.2245475107922211
0.2583759607742104
0.3065664600220359
0.3360031477499047
0.3043322474686111
0.2149553908531406
0.1219450123443507
0.133056793771624
0.1320980499864772
0.1360263692919354
0.1393742443299604
0.1428455149584222
0.14664808232557
0.1509435835032049
0.1568456764669515
0.1633536819688302
0.1720828147102286
0.1852503773119764
0.2035765522409527
0.2300237712031455
0.2674760137082098
0.3194859882501493
0.3380851401491082
0.2941700394212846
0.2052050592079042
0.1176737938499346
0.1360759613153051
0.134636003907645
0.1377968705697056
0.1402841991213462
0.1431173602711865
0.1464252240046019
0.1507622794806982
0.156989785120476
0.1641252970716931
0.1735141429120297
0.1876125052293418
0.2069325378151576
0.2346579942590256
0.2772890447994749
0.3324413738018567
0.3444136832592648
0.2930403496044149
0.2000163840258229
0.1144580363812835
0.1395287359381936
0.137220087663196
0.1398755658516439
0.1413411209519982
0.1432649937295708
0.1463852367836391
0.1506997716313854
0.1569846883197384
0.1646105502774222
0.1748869783402906
0.1900916096473687
0.2110096310454542
0.2407106534826456
0.286398922354981
0.3424875728845662
0.3527579620242838
0.2950182164217863
0.1962509283224073
0.112847768767514
0.1427976588742252
0.1394417567870889
0.1412730831632082
0.1422179196268352
0.1435029482189002
0.1466253541393755
0.1508546131843916
0.1569503619180269
0.1649177378965453
0.1759996527387522
0.1918590348963359
0.2145471089125437
0.2458453473141284
0.2937235552405402
0.3496113193416971
0.3583546065218644
0.2979039532396413
0.1937400348878399
0.1109251391882294
0.1458050620713508
0.1415721075647691
0.1423656903932977
0.1430324375423789
0.1441823707394237
0.147013452309073
0.1510810839023058
0.1570616807231895
0.1655449111075122
0.1774960659962024
0.1938910149245923
0.2178479591056113
0.2495694713589231
0.2997617883467252
0.3563452832639255
0.3636295156080766
0.3016210786271097
0.1928017122004842
0.1091223095758065
0.1485161951168288
0.1437718253831386
0.1438577250894077
0.1440998367173163
0.144873238268883
0.1471112597290238
0.1511674366434921
0.1572788406487044
0.1663150454507717
0.1788237552265965
0.1960916072313725
0.2207985625081474
0.2529012087791748
0.3058524285805405
0.3643456088866807
0.3685193919106275
0.3024016042714746
0.1925811856633444
0.1087224246950797
0.1510750195069362
0.1460125831663934
0.1452619613638476
0.1451160672056973
0.1452742678441884
0.1472149628393351
0.1511953505493426
0.1573608386865278
0.1667556024860852
0.1797100236125681
0.1975210834609283
0.2232217879898731
0.2571269466906711
0.3117628807447886
0.3704137786278361
0.3723460809101874
0.3035754959839436
0.193309941250427
0.1091477382938628
0.1538618600665269