/*--------------------------------*- C++ -*----------------------------------*\
| =========                 |                                                 |
| \\      /  F ield         | OpenFOAM: The Open Source CFD Toolbox           |
|  \\    /   O peration     | Version:  2112                                  |
|   \\  /    A nd           | Website:  www.openfoam.com                      |
|    \\/     M anipulation  |                                                 |
\*---------------------------------------------------------------------------*/
FoamFile
{
    version     2.0;
    format      ascii;
    arch        "LSB;label=32;scalar=64";
    class       volSymmTensorField;
    location    "0.0057";
    object      tauij_LES;
}
// * * * * * * * * * * * * * * * * * * * * * * * * * * * * * * * * * * * * * // 
 
dimensions      [0 2 -2 0 0 0 0];
 
internalField   nonuniform List<symmTensor> 
13597
(
( 0.1723026734779436 -0.0038485758720026 -0.0135578195239522 0.0467509011001789 0.0192071354801016 0.055738796968894 )
( 0.1716507234175271 -0.0060400246913304 -0.0101910767404525 0.0456822940430695 0.0217564790294577 0.0594916990504505 )
( 0.168398273491237 -0.0111397759844664 -0.00410188416304 0.0460233977275065 0.0264683314760966 0.0676245385582932 )
( 0.1641009302210748 -0.0169663573573298 0.0018950413863399 0.0508655620139785 0.0311735954835982 0.0794952774343412 )
( 0.1606082737868185 -0.0206488759876958 0.0050978564764162 0.057799421764834 0.0334999965134448 0.0883560021744627 )
( 0.156695741715516 -0.0220715943890494 0.0072487356037236 0.0640334156674172 0.0341898742736356 0.0926736711231483 )
( 0.152088375951078 -0.0228122331000336 0.0081804433233774 0.0700961705998547 0.0344185199196695 0.0953662013258899 )
( 0.1466932845190476 -0.023035234381022 0.0084196381948712 0.0763130209163664 0.0340791190714884 0.0964103071094542 )
( 0.1413098723052171 -0.0229348023569446 0.0080393433716178 0.0817644108157001 0.0336061505292545 0.0964113023724037 )
( 0.1354998179067663 -0.0220149015922387 0.0068301652357242 0.0860143732478905 0.0330166703396713 0.09575483756217 )
( 0.1290376505458296 -0.0202380218831463 0.0054859186431228 0.0894083787598243 0.0321291474180367 0.0948279755635362 )
( 0.1235105242170182 -0.0187158020094067 0.0034259889873866 0.090930516890721 0.030678319147714 0.0942470134713077 )
( 0.1184105073496992 -0.0170913235188951 0.0015018867168934 0.0904080519694854 0.0282703138012264 0.0939905219217695 )
( 0.1132629087257747 -0.0151434857447031 -0.0002811310523074 0.0888116105557242 0.0255611305492856 0.0945874170419071 )
( 0.1084736253862738 -0.0128837021351666 -0.0023960314794681 0.0864155160517563 0.0226342772209069 0.0963433984805853 )
( 0.1041488890455679 -0.0107509034299594 -0.0041466473555748 0.0835660792137695 0.0186146522788355 0.099300554216587 )
( 0.1004053581865499 -0.0088374732058017 -0.005493764282266 0.0806192692745646 0.0131840053879817 0.103270618606646 )
( 0.0969294959246548 -0.0064468038273395 -0.0075673739971 0.0766241888922876 0.0070393044913935 0.1068250406034043 )
( 0.0941116959312736 -0.0043024009270217 -0.0104989022452561 0.0719846414527378 0.0008020870338655 0.1098634234883045 )
( 0.1685838136587057 0.0053927704574814 -0.0058382354110947 0.0441799284605155 0.014550198923856 0.0607387620752735 )
( 0.1646860429954191 0.0041101584602397 -0.0001504268394287 0.0442084010710615 0.0164273011091795 0.0653035458515822 )
( 0.1564554285240738 -0.0001930356240602 0.0095464591724961 0.0485401203338349 0.0206495793401275 0.0728604899116033 )
( 0.1489083889086988 -0.004359972187494 0.0176873995009325 0.0591659816231317 0.0244653756087816 0.0823687502252919 )
( 0.1421416133925062 -0.0063123931727282 0.0213235593913081 0.0685408240696669 0.0260145362843262 0.0881181549238446 )
( 0.13452554267502 -0.007636950015421 0.0235261747978495 0.077299457158961 0.0271027640344322 0.0917141557965159 )
( 0.1277358766083777 -0.008783914250985 0.0239607464197803 0.0848951838980314 0.0281221338468116 0.0939070259662863 )
( 0.1204910441946505 -0.0096449195966383 0.0233921448689396 0.0916121039445146 0.0291652753209046 0.0958622614540678 )
( 0.1135648456105099 -0.010893229251282 0.0221569390545338 0.0968049713342986 0.0301206539270149 0.0977193439812946 )
( 0.1067388160061037 -0.0116924027878745 0.0197442527813881 0.0997734608064155 0.0307591431103123 0.0997479317658432 )
( 0.099854149826781 -0.012513188826353 0.0159322707297764 0.1006145700098832 0.0310189315589893 0.1030687550629408 )
( 0.0944250835781009 -0.0143442150951137 0.0107069378033013 0.0994061447796676 0.0298243358687923 0.1073313023815249 )
( 0.0900705090938605 -0.0150896494498608 0.0051429562216217 0.0962763092264995 0.0265875753608498 0.1124699790829854 )
( 0.0865475093012602 -0.0150729701733165 -0.0011413956234278 0.092033906817312 0.0217823185172628 0.1187281852149914 )
( 0.0847185205221088 -0.0148216415305893 -0.0077310908640977 0.087982203681566 0.0159542084811864 0.125658793692511 )
( 0.0837932665839175 -0.0137537298527031 -0.0142029733079018 0.0843790824792884 0.0091621618232821 0.1329879514225566 )
( 0.0836043918687963 -0.0123929817300235 -0.0203537351781859 0.0815213522468606 0.0015187285182106 0.1397360908368842 )
( 0.0843706886413606 -0.0100673948641099 -0.026744604434506 0.0785263785811898 -0.0067271528616239 0.145173027695135 )
( 0.085741116225008 -0.0071779460004755 -0.0329309681350555 0.0754079003389145 -0.0146590661253778 0.1492992307056092 )
( 0.1522100485334552 0.0129143555480255 0.0019748082410429 0.0444214433514676 0.0111583135193783 0.0731507506832852 )
( 0.1435237704868599 0.011839909457586 0.0094307728839105 0.0468203561622226 0.012391195126713 0.07899300457912 )
( 0.1316568410432824 0.0073164704700672 0.0191789068458682 0.0553086966946035 0.015825988281502 0.0852912719261968 )
( 0.1205608282588734 0.0025338235677408 0.0244622310656806 0.0693677943098979 0.0195257150173016 0.0920615176180919 )
( 0.110686924167772 -0.0003817185862477 0.0248021199143949 0.0792467642061259 0.02186635415751 0.0963354131623895 )
( 0.1022365033153828 -0.0032800344603936 0.0233686616369371 0.0874249049314638 0.0240508160613127 0.0993314759007023 )
( 0.0950256938719686 -0.0065985076004411 0.0196352653096572 0.0938019192295197 0.0264973374960269 0.1009419383883447 )
( 0.0882642447948677 -0.0099330130400048 0.0143476450924326 0.0983569950254858 0.0288916186001966 0.1028933160158145 )
( 0.0828717176682446 -0.0131343724013184 0.0079546782005592 0.1004587734037344 0.0306801275649875 0.1054159522911847 )
( 0.0789079844461255 -0.0159089769498977 0.0005824113346241 0.100263713778109 0.0307361989669509 0.1094580039123587 )
( 0.0760221299038484 -0.0181496007611542 -0.007725316923313 0.0982192689674867 0.0285954396484921 0.1152592759441444 )
( 0.0751058973334487 -0.0198873492643921 -0.0171926256163679 0.0949964259893395 0.0241824955130173 0.1228652152839587 )
( 0.0756354444674151 -0.0200511898317905 -0.0273996770980623 0.0910891170808911 0.0174817410467474 0.1317335819746329 )
( 0.0767297068910985 -0.0187846532019306 -0.037163490714733 0.0874268009428518 0.0091582621122888 0.1401476188028604 )
( 0.0787113464318266 -0.0168188189577502 -0.0452729227155434 0.0849611099409198 0.0001407157674423 0.1476738792286764 )
( 0.0808926430511524 -0.0143111170521525 -0.052494739670352 0.0830574313223739 -0.0082115479336455 0.1537530183953691 )
( 0.0829912476533245 -0.0115600996123653 -0.0587281760641001 0.0817039251679731 -0.0158547639299156 0.1581010362882685 )
( 0.0852036426713132 -0.0083090664958177 -0.0639425497215653 0.0805195093259102 -0.0232704852041655 0.1608713731173772 )
( 0.0872061411088797 -0.0046768634598616 -0.068151912631127 0.0793272059154007 -0.0302856779722203 0.1626120836156875 )
( 0.1293570440992761 0.0170009574660921 0.0108454934183734 0.0474451164363978 0.0073820849019743 0.0880664067996145 )
( 0.1183991161393258 0.0146576087047857 0.0179026394591312 0.052477812026876 0.0079915394024666 0.0939465741386995 )
( 0.1062054877566204 0.0085063589388647 0.0234831224285452 0.0633043084755553 0.0109734000596786 0.0978794561960597 )
( 0.0950022429192277 0.0018329260720606 0.0230536548266304 0.0778095570136816 0.0153665325189667 0.1017326914049375 )
( 0.0865984330313872 -0.0033481111025475 0.0180687444099509 0.0869319194568061 0.0187677111157117 0.1040434015030518 )
( 0.0809868738822356 -0.008492086470068 0.011345807288531 0.0930597575182924 0.0218915907432842 0.1051057957488918 )
( 0.077046158364247 -0.0136405258238772 0.0028502633577059 0.0966388368169487 0.0245873081260819 0.1056267484205106 )
( 0.0749184403617392 -0.0183709535619473 -0.0064538852985051 0.0980440098270967 0.0260549577959514 0.1075828310462195 )
( 0.0740412262031382 -0.0219065714401311 -0.0159915346213281 0.0972833864096529 0.0260952017798076 0.1109357222919401 )
( 0.0747335639101241 -0.0245494857507792 -0.026158213217717 0.0951372415715656 0.0237886927674756 0.1163100148224071 )
( 0.076376256026834 -0.0260610808897229 -0.0367132058631624 0.0920084916998383 0.0183555632835997 0.1232649072794607 )
( 0.0790164971215574 -0.0256618018988785 -0.0464759308059478 0.0885920343621198 0.0105339511047846 0.131297619882886 )
( 0.0824235879308527 -0.0234176576700833 -0.0551376765263032 0.0857094537877482 0.0009179784702839 0.1402548121833191 )
( 0.0860258192885559 -0.0201134415821405 -0.0621096911881406 0.0837678804572127 -0.0090669201771122 0.1483672454110117 )
( 0.0896749035651085 -0.0164009114257541 -0.0666923904299541 0.0825720519797387 -0.0180529869146582 0.1545082529982764 )
( 0.0929753502288311 -0.0126038060656682 -0.0694175140967558 0.0819982819266606 -0.0253295776846374 0.1590517914219774 )
( 0.0961464407936926 -0.0089670719297919 -0.0706713091268265 0.0815326072023457 -0.0309752809152362 0.1618395307491889 )
( 0.0995598532745105 -0.0049930284658703 -0.070691029162746 0.0809654600640367 -0.0358110370831249 0.1641314381775616 )
( 0.1026975686818446 -0.0002998150126178 -0.0690064191055174 0.080462076828147 -0.0400226387854471 0.1659197048286895 )
( 0.1094322202589518 0.0168338164777058 0.0193783165851769 0.0529972880681376 0.0030278065765724 0.102721383072136 )
( 0.098578059478363 0.0117444879939234 0.0237629110774169 0.0597294956362152 0.0032732039434744 0.1067556364274241 )
( 0.0885148437319195 0.0035795368286421 0.022996319641153 0.0714133124669747 0.0067582216338494 0.1078449445076059 )
( 0.0815899204361291 -0.0049426904741361 0.0163731266962923 0.0841552387933531 0.0119643720748472 0.1092840488162821 )
( 0.0777348203308081 -0.0119496664422424 0.0071641808264977 0.0910222469441042 0.0157772833966332 0.1095772296919731 )
( 0.0763904127533276 -0.0179659382530913 -0.0029084612245187 0.094469405715982 0.0191024003928004 0.1094209212115761 )
( 0.0772139522340376 -0.0236909810028182 -0.0137891166325313 0.095045002545315 0.0207274985468889 0.1096044771553686 )
( 0.0788996585349274 -0.0280471974397772 -0.0244486795801537 0.0938987546024404 0.0205388306064427 0.1121841984090287 )
( 0.0811033655827892 -0.0303301799357965 -0.0341800013663256 0.0914501903267237 0.0182754632803642 0.116667059283265 )
( 0.0847678304485914 -0.0310369782299896 -0.0433811751669921 0.0882409531334885 0.0129005608147157 0.1225152702301573 )
( 0.0892864067958386 -0.0299784620927005 -0.0516598691215921 0.08522058035936 0.0044929881792724 0.1305502858803784 )
( 0.0941378635372985 -0.0268758623955081 -0.0579122203077522 0.0829371483745095 -0.0056486856056725 0.140001135750237 )
( 0.0993902894867114 -0.0221229630894145 -0.0619118505221224 0.0813393210885299 -0.015943253370496 0.1496002922734044 )
( 0.1048389272262006 -0.0166074236820022 -0.0633750031751321 0.0808700492646015 -0.0249088936081007 0.1579028442898856 )
( 0.1100811810236592 -0.0111284722879808 -0.0624902003029236 0.0807594721355556 -0.0316074302511317 0.1639969559729333 )
( 0.1148903074591268 -0.0056393677380286 -0.0597048731018555 0.0808165402471351 -0.0365869672996601 0.1686773696657491 )
( 0.1192067498371984 -0.000303261332219 -0.0556183801242801 0.0809129202504804 -0.0399997243668711 0.1722024932363579 )
( 0.1236410269354957 0.0050721504591755 -0.0506189730972197 0.0809901748773012 -0.0419160017245506 0.1754587913859764 )
( 0.1280311529830344 0.0110484021514379 -0.0437002241792909 0.0812485891452263 -0.0425325877020008 0.1781227439934653 )
( 0.0955552209715788 0.0129010927895249 0.025454240355789 0.059425944268471 -0.0013003115639292 0.1154479880922355 )
( 0.0868593412454282 0.0053801327528296 0.0260951926002269 0.0667755421831448 -0.000998445932476 0.1173393983167994 )
( 0.0800501954337568 -0.0045293090303067 0.0189543526188307 0.078099889137814 0.0037230033114503 0.1154382674052056 )
( 0.0779716640923256 -0.0138738432581308 0.0076483660555675 0.0881061269244645 0.009803774469351 0.1149834633926774 )
( 0.0783138289225735 -0.0211607317274703 -0.0034573004837171 0.0917538180537133 0.0138035577208564 0.1140288788177546 )
( 0.0802583455294845 -0.0267886881302545 -0.0146554251377086 0.0924838637900319 0.0168653334740881 0.1135815005094508 )
( 0.0835313452852184 -0.0311266876699233 -0.0254002391533752 0.0910650963842152 0.0173786017511128 0.1149685186699983 )
( 0.0871692030310606 -0.0333600873835826 -0.0350768351371691 0.0880675964997589 0.0152790324647053 0.1187910452260387 )
( 0.0915876747457209 -0.0334454410274009 -0.0434678752670732 0.0843243367775355 0.0104239851212638 0.1250756947548547 )
( 0.0971485751935593 -0.031523625950913 -0.0499676769628441 0.0810753693100846 0.0021091424533304 0.1334334753657372 )
( 0.1033919697373051 -0.0274845137201446 -0.0538043743076819 0.0792328333951869 -0.008379970946398 0.1429576069484646 )
( 0.1100858011418813 -0.0215270336739268 -0.0552245758320627 0.0781409536634119 -0.0190627174732463 0.1535570270354294 )
( 0.116702524657792 -0.0143400875294624 -0.054229160493497 0.077799977772589 -0.0280611726521086 0.1638157451590562 )
( 0.1224083452811957 -0.0069422474424185 -0.0506779859000592 0.07844987744229 -0.0345072634183076 0.1709729809615997 )
( 0.1277660600783528 0.0001900236639835 -0.0456126037121657 0.0794436147426741 -0.0385877362874909 0.17670192991705 )
( 0.132532459259558 0.0069039919447239 -0.0398478918098216 0.0802451292116641 -0.0406873243721865 0.1810713107263769 )
( 0.1365921697116023 0.0133267217247795 -0.0332289763467711 0.0811045171326947 -0.0413479583545278 0.1840644716991369 )
( 0.1399588586683974 0.0194428950275684 -0.0257916912139553 0.0819879868085133 -0.040438374530135 0.1857840772900813 )
( 0.1432438637149735 0.025798754434935 -0.0173501627627645 0.0828872948219231 -0.0380397219093524 0.1866651669256645 )
( 0.0863804178943431 0.0062673928043675 0.0287459690186885 0.0657951161319009 -0.0048370705442691 0.126667576417978 )
( 0.0811131558517635 -0.0025685558784001 0.0247948655476531 0.0729241268697623 -0.0037011863653285 0.126723654690985 )
( 0.0785973123593416 -0.0131309437525617 0.0132212097415543 0.0825608090668268 0.0024957003635109 0.1227822246094899 )
( 0.0795573179169625 -0.0220266512775959 -0.0003228529721152 0.0893507990044505 0.0095101442176674 0.1204253128795628 )
( 0.0821982844816473 -0.0280879569067888 -0.0121211286349308 0.0903178120703875 0.0137413754586636 0.1191172687661629 )
( 0.0855678693622998 -0.0322530286989687 -0.0232885776526969 0.0888357710346239 0.0162084530727988 0.1198431997940482 )
( 0.0892541566412123 -0.0341466118016998 -0.0330172216812737 0.0854964909297366 0.015199511276152 0.123376494108657 )
( 0.0942020542831021 -0.0337529447734124 -0.0404333789758452 0.081472924962404 0.0104419994312879 0.1288836635986464 )
( 0.1001393823506311 -0.0309924874127459 -0.0460441098689973 0.0776696154034187 0.0029931572321109 0.1369957269311639 )
( 0.1065517920373521 -0.0262609153790508 -0.0493630103045068 0.0751196611185214 -0.0068603161154406 0.146883183091761 )
( 0.1133292850648673 -0.0198342765675588 -0.0493118654248833 0.0741513431891156 -0.0176446531266161 0.1569318883603326 )
( 0.1202057948641743 -0.0115063725633691 -0.046682921058324 0.0743306564257898 -0.0273472264200397 0.1677206501611118 )
( 0.1266037553884816 -0.0027091130809356 -0.0420850352434924 0.0756326192332033 -0.0343210879001579 0.1767029293615219 )
( 0.1314855210640987 0.0058248523985025 -0.0357280295406248 0.0775473978230689 -0.0382225387427154 0.1821832218373749 )
( 0.1355217781826959 0.0138989444887914 -0.0288000307473879 0.0795856612575789 -0.039785345176005 0.1860125107587241 )
( 0.1389667024855096 0.0209357843318526 -0.0221249615875872 0.081231792238243 -0.0395912133492673 0.1881849924060264 )
( 0.1416424932347654 0.0276805927466215 -0.0152059148010373 0.0828611095303881 -0.0381076852456713 0.1883215582256663 )
( 0.1436574406745895 0.0342026258865709 -0.0078421781748122 0.0843659112585506 -0.0353186708063848 0.1866851153951363 )
( 0.1453719330220933 0.0405172695279363 -0.0001366488510767 0.0857036690744732 -0.0311848343018515 0.1836612839772216 )
( 0.081610250695421 -0.0011664375776299 0.0288390925047081 0.0719690703053869 -0.0066384324997786 0.1369114543768918 )
( 0.0787446526220699 -0.0100618356956501 0.0207504430585119 0.0778406238701498 -0.0036027096884087 0.1352418303711471 )
( 0.0792103566068848 -0.020003978283203 0.0064686491650076 0.0851320133006079 0.0041729690142977 0.1296375868333893 )
( 0.0821992197493891 -0.0278201071084365 -0.0077481467467306 0.0891121234951927 0.0119546891080519 0.1266493082269305 )
( 0.0856324322607182 -0.0321583419604615 -0.0194327615536495 0.0879053862900516 0.0160391842531717 0.1263570177871176 )
( 0.0893411380297215 -0.0334683731115988 -0.0294924348902536 0.0840385946367044 0.0166172694536105 0.1286914803264283 )
( 0.0937285116550182 -0.0328514916584082 -0.037648540153788 0.0793533286801645 0.0133343858137906 0.1343087813556344 )
( 0.0991133030562553 -0.0302492106991737 -0.0427137385611645 0.0753462249010198 0.006597016404375 0.1419975568199067 )
( 0.1051151612828131 -0.0248802507004386 -0.0448279440264812 0.0720111357553523 -0.0031579711330335 0.1508024306728533 )
( 0.1112775386194326 -0.0176071677979305 -0.0452356402286879 0.0704966620204794 -0.0139589140701905 0.1607423993312377 )
( 0.1176755427744752 -0.0091265268329873 -0.0424481871076153 0.0707040999768834 -0.0241058436866745 0.1702575705568983 )
( 0.1240172205765883 0.0005474619052911 -0.03703896068606 0.0725049715256581 -0.0322119487809261 0.1793838221840335 )
( 0.1289264259414055 0.0102689705451387 -0.0306173896842806 0.0754247038735701 -0.0368687606427836 0.1849817641252048 )
( 0.1325125185286627 0.0192271023956765 -0.0234850043124681 0.0785590672159612 -0.0384653923948202 0.1872290149302383 )
( 0.1353122344298646 0.0271888594121148 -0.0166123052569203 0.0814847955127914 -0.0380795038724552 0.1878685551097289 )
( 0.1373161626940702 0.0343320248705634 -0.0099796567945169 0.0839236533906905 -0.0363194544434254 0.1864255508978896 )
( 0.1388837146026068 0.0411484148434433 -0.003579637850967 0.0862075276271923 -0.0334855778760211 0.1829157151230595 )
( 0.1401260744475093 0.0477011389206182 0.0027145323505685 0.0881589852917735 -0.029615234893464 0.17772859281789 )
( 0.1411820612017524 0.0538799165165456 0.0092288518520276 0.0897827002484648 -0.0246446951092136 0.1713257381035535 )
( 0.078651593895526 -0.0078752011315613 0.0257209941727294 0.0773679843357089 -0.0057068537522783 0.1460954397854071 )
( 0.0771797566967121 -0.0159860012977129 0.0148978778507252 0.0813586367540977 -0.0004018082594928 0.1430922330383294 )
( 0.079266700633453 -0.024697699325315 -0.0007222877296016 0.0863957452371019 0.0087586133221992 0.1369333297339785 )
( 0.0829152164105766 -0.030493506017618 -0.0146266422172604 0.0878813342159719 0.0165727706704162 0.1345662342821256 )
( 0.0868071025614586 -0.0325563750666134 -0.0252508650882581 0.0843830799355374 0.0194318763817729 0.135437108418548 )
( 0.0910113549563743 -0.0316514426900415 -0.0333206294445587 0.0793360674508021 0.0174855747215164 0.1398629473275645 )
( 0.0957643234951464 -0.0289114369111889 -0.038980680839154 0.0742069063046884 0.0116492208200896 0.1467412881702639 )
( 0.1009755623181663 -0.0239741449457947 -0.0419105213962443 0.0702721252752064 0.0028035007979492 0.1547827920319356 )
( 0.1063766678130086 -0.0167939300673029 -0.0417676216092016 0.0676242065625736 -0.0083097635004787 0.1636599977008442 )
( 0.1121290141190405 -0.0077583288395117 -0.0396695957862294 0.0673255197835958 -0.0193245107869515 0.1727077424872259 )
( 0.1177755367493268 0.0022168348532349 -0.0350919012452804 0.0694368124686879 -0.028580071004103 0.1799701297016858 )
( 0.1229624174696747 0.0123711335282789 -0.0284065160390499 0.073026215681603 -0.03484854896483 0.1853117784051319 )
( 0.1266814045352231 0.0225021724002518 -0.0211494354731072 0.0774940482733205 -0.0373858691970349 0.1869145299514576 )
( 0.1291969056625923 0.0316062145365944 -0.0143944091340463 0.0816589540905088 -0.0372072005108243 0.1854626984747368 )
( 0.1314866867042033 0.0393693013725429 -0.008125531039209 0.0851744626675925 -0.0356017025454539 0.1827083864929528 )
( 0.1328363496246717 0.0465221572832939 -0.0019808040694937 0.0883209056951377 -0.0327984588288502 0.1780484851530528 )
( 0.1336281319588345 0.05327982717351 0.0033849770771202 0.0910921221101977 -0.0292002982379859 0.1714972397589206 )
( 0.134918266897501 0.0598161252901773 0.0087145189621578 0.0935409734811138 -0.0248187308878137 0.1642443925007809 )
( 0.1363579205494187 0.0660675299674459 0.0139794759957884 0.0953833749721262 -0.0195477950088903 0.1563886998074493 )
( 0.0761691372307439 -0.0130606484602428 0.0202453066589696 0.0816165018318457 -0.0017277459496102 0.1549600271025296 )
( 0.0755251552095973 -0.0204857501973026 0.0074418423134068 0.0843726720928042 0.0055942096350271 0.1506455116816267 )
( 0.0783289705580685 -0.0273270615792545 -0.0080823975819535 0.0869218835526439 0.0154021061013802 0.1446508538613329 )
( 0.0823690251555108 -0.0305592558679015 -0.020336194343249 0.0856432799399752 0.0215551522923244 0.1434957843712482 )
( 0.0865180082383957 -0.0303402752871009 -0.0293082795887474 0.0804503805604794 0.0219822081918137 0.1456317191195487 )
( 0.0904451659938954 -0.0276807259955767 -0.0351067429928923 0.0747286953188828 0.0179259279489102 0.1512082868429667 )
( 0.0950405163925044 -0.0230775515113144 -0.038042549276297 0.0695371555920845 0.0098175360389747 0.1583875907779583 )
( 0.1005052375854474 -0.0165211400360428 -0.0390040545674494 0.066098361985144 -0.0008655825350393 0.1665347483211252 )
( 0.1051774242034106 -0.0083367260574435 -0.0377536783585597 0.0646334167349123 -0.0122873267481795 0.1744949588545312 )
( 0.1102630421843513 0.0015269797035974 -0.0339328694148301 0.0659532665022374 -0.0230919379704112 0.181301112003241 )
( 0.1154942380566915 0.0123464749048462 -0.0283853839737159 0.0700356474486071 -0.0312727771752284 0.1851898274094421 )
( 0.1194294985797738 0.0229504806409553 -0.0215700020232479 0.07536139190967 -0.0357534822492276 0.1857876568393565 )
( 0.1224499932024716 0.0331272325742844 -0.0144066697618148 0.0810234038741918 -0.0368110038362371 0.1838977370874603 )
( 0.1246266513721518 0.0421592783987286 -0.0080765624204074 0.0860086457918625 -0.035545426533276 0.1796981289692212 )
( 0.1262938487693639 0.0499054119319011 -0.002169628073345 0.0902807228581936 -0.033092598435343 0.1738509777207754 )
( 0.1274934127859862 0.0570954676830701 0.003220369137869 0.0941223830196572 -0.0298621821817217 0.1669564977705416 )
( 0.1287478212283876 0.0642022218640067 0.0076684844078763 0.0975643149229866 -0.0259705113042181 0.1590270300906491 )
( 0.1309741235225393 0.0711218041513873 0.0118858350952223 0.1005049678155597 -0.0213725717136986 0.150891899571284 )
( 0.1339546707893098 0.0778078966051602 0.0160735207662428 0.1025605967520634 -0.0160972751122781 0.1427357631808953 )
( 0.0734551241564102 -0.0171419578920853 0.0137847398930589 0.0851058178187138 0.0036738585416629 0.1629355480289297 )
( 0.0732031108980291 -0.0228739886651294 0.0001712055147158 0.086267819334442 0.0125238143935984 0.1572733919974545 )
( 0.0764725219219534 -0.027644374809274 -0.0145506244894445 0.0865375825476333 0.0223147990916177 0.1527308787743524 )
( 0.081081549130482 -0.0289096774261775 -0.0244563338864281 0.0832228258690685 0.0260551025877434 0.1529452568250399 )
( 0.0848385742993046 -0.027039740123519 -0.0312962771469442 0.0769127318515625 0.0241712528593234 0.1562930948200109 )
( 0.088455614633038 -0.0225938947265264 -0.0352368838372102 0.0704930198308355 0.0178883905751826 0.1621388046969693 )
( 0.0931556965569873 -0.0166302394491773 -0.0363835266290611 0.0656775963096138 0.0080678858008591 0.1690525818512285 )
( 0.0982719167439823 -0.00949900338631 -0.0357569564289459 0.0631311213603144 -0.0033471599211671 0.1764589105645878 )
( 0.1029974918982267 -0.0005869679860612 -0.0331358552366667 0.0632114479180268 -0.0154285103038604 0.1821662454858055 )
( 0.1071448630200647 0.0097011365231953 -0.0284368872876478 0.0663289758246872 -0.0259165654816742 0.1859788776904935 )
( 0.1110940574343197 0.0207156108467688 -0.0224405068341996 0.071918888742291 -0.0328788732239498 0.1860333734711849 )
( 0.1146421478453067 0.0319035288402484 -0.0155622135462815 0.0789135433234705 -0.0361089331008598 0.1829629608759831 )
( 0.1173590972713487 0.0420141596999403 -0.0090049535263217 0.0855824131195476 -0.0362032551248787 0.1779775149395079 )
( 0.1196555100452582 0.0510497068619326 -0.0032363604806427 0.0913959530429431 -0.0342163204342311 0.1713673499176148 )
( 0.121376803262318 0.0591697802294054 0.0019111252156269 0.096584767648953 -0.0310637960653404 0.1636871083570966 )
( 0.1232149447233945 0.0668835894856685 0.0064462587499474 0.1012617886021343 -0.0275760529010703 0.1554973024576766 )
( 0.1260740574106946 0.0746064289954212 0.0103408921221854 0.1056118187520325 -0.0235732511406836 0.1473516219907947 )
( 0.129957405725623 0.0821621449512354 0.0135904037326366 0.1090239348429662 -0.0189973798349757 0.1392668827805459 )
( 0.134798103577892 0.0898005176666435 0.0165456229540865 0.1113778364388479 -0.0138734356272276 0.1312699308035548 )
( 0.06979003374464 -0.0196486820902979 0.0069550882875303 0.0880939234384758 0.0102133592295155 0.1699942850752006 )
( 0.0700040950688054 -0.0232703679451062 -0.0063915853002532 0.0874691047870541 0.0197874506221076 0.1637761733616858 )
( 0.0740911386555055 -0.0261623139476111 -0.01938451032317 0.085528582046092 0.0283384730432304 0.1605643115611479 )
( 0.078465118267852 -0.0259067003610319 -0.0270844421414307 0.0806061396284061 0.0299331227503784 0.1623973622846335 )
( 0.0820116452632173 -0.0228697002301745 -0.0317987378059781 0.0736141806521735 0.026126055918929 0.1662661046660419 )
( 0.0862385891958398 -0.0176774765891684 -0.033929444397086 0.067189978054996 0.0176423100372012 0.1721308638024673 )
( 0.0908139144118057 -0.0109894272116633 -0.0340255990335482 0.0629721007247154 0.0062230820866236 0.177992724469322 )
( 0.0948131372879887 -0.0029288975108216 -0.032454434959722 0.0613746919891456 -0.0062767949000653 0.1829923603685991 )
( 0.0992729967106796 0.0065680338281402 -0.0286086938237741 0.0632294116159048 -0.0187143839390992 0.1862000724427157 )
( 0.1027305422342425 0.0169561605343731 -0.0233675407716126 0.0680290348081527 -0.0284126508056005 0.1865528228271178 )
( 0.1058504122675803 0.0279771604573001 -0.0174587383131292 0.0749378933267704 -0.0342338694184781 0.1833476597561982 )
( 0.1093431702829572 0.0392761396507001 -0.0107058801450872 0.0832859917105601 -0.036436462301316 0.1778069123718922 )
( 0.1122058281915433 0.049608638306366 -0.0045509503296787 0.091131986314342 -0.0355579887686933 0.170234677982053 )
( 0.1153474310891894 0.0592899951629051 0.0005883657762159 0.0981253199576047 -0.0329314205439089 0.1618696560913313 )
( 0.1183553915234297 0.068412961650379 0.0048071059683431 0.1045428517319216 -0.0295333508955473 0.1532967254042375 )
( 0.121584089158707 0.0768797080522577 0.0082662666165474 0.1102269830500508 -0.0258965646202299 0.1449183988816596 )
( 0.1258343152445106 0.0851803477174026 0.0113255795931187 0.1152899693310809 -0.0219243752373924 0.1369602965018194 )
( 0.1314558976790183 0.0937242160404807 0.013964108847411 0.119227469956532 -0.0173443357799942 0.1291749894925453 )
( 0.1387084927832488 0.1027478237249598 0.0161618208881816 0.1219885151390753 -0.0122043570122086 0.1216348687574579 )
( 0.0653629763387193 -0.0204070071639908 0.0001672353571744 0.0907129574708962 0.0181301490784859 0.1773516589523737 )
( 0.0665128515864474 -0.0227427435458713 -0.0116020449422322 0.088645243324644 0.0270867906542413 0.1721213518036508 )
( 0.0715769510039004 -0.0240804849631043 -0.0221765674599996 0.0847767827686538 0.0335467010061408 0.1691764451011679 )
( 0.0752214092551193 -0.0220267911533959 -0.0280898868944907 0.0778068560781381 0.0327381651282752 0.1710626461796826 )
( 0.0792761681427567 -0.0183390813684471 -0.031160359437898 0.0705701111372249 0.0267623720142858 0.1749457444546394 )
( 0.0840636556233899 -0.0129285863648559 -0.0319655698896863 0.0645390792353448 0.0165012368668137 0.1800772376636452 )
( 0.0882777189395829 -0.0056816580482297 -0.0311565719599412 0.0610862017856837 0.0036626219498771 0.1846392713007716 )
( 0.0916428468082005 0.003138932974771 -0.0286593735120356 0.0608615183234378 -0.0098489169743379 0.1874948583823009 )
( 0.0951620628298091 0.0128377272317528 -0.0244407679059338 0.0643226732253092 -0.0219914131817658 0.1884051066195396 )
( 0.09832539380728 0.0232591402380755 -0.018987571529023 0.0706784442921358 -0.0306044370479088 0.1854681436728698 )
( 0.1016981375405188 0.034708982199485 -0.0131468890009539 0.0793647054139765 -0.035472299168322 0.1790828121902773 )
( 0.105236406894033 0.0460089170190156 -0.0068000438551702 0.0889296527406804 -0.0366653029655283 0.1714514986184127 )
( 0.1086059466520464 0.0570125465694313 -0.0012179003707063 0.0980938971859638 -0.0350206576215475 0.1622662587537906 )
( 0.1125422686104013 0.0676093142080927 0.0031834340941673 0.106507130110152 -0.0318905449370221 0.1528512085301703 )
( 0.1167300890091976 0.0772742174387831 0.0067157025433556 0.1140185461206715 -0.0284167094128252 0.1442408585094072 )
( 0.1213935180467071 0.086479455350056 0.0091456926284242 0.120565979964086 -0.0248547389794264 0.1359624110084075 )