/*--------------------------------*- C++ -*----------------------------------*\
| =========                 |                                                 |
| \\      /  F ield         | OpenFOAM: The Open Source CFD Toolbox           |
|  \\    /   O peration     | Version:  2112                                  |
|   \\  /    A nd           | Website:  www.openfoam.com                      |
|    \\/     M anipulation  |                                                 |
\*---------------------------------------------------------------------------*/
FoamFile
{
    version     2.0;
    format      ascii;
    arch        "LSB;label=32;scalar=64";
    class       volVectorField;
    location    "0.0078";
    object      U_LES;
}
// * * * * * * * * * * * * * * * * * * * * * * * * * * * * * * * * * * * * * // 
 
dimensions      [0 1 -1 0 0 0 0];
 
internalField   nonuniform List<vector> 
13597
(
( 17.808833432665992 1.942468797649293 0.1049570188933191 )
( 17.814122029387715 1.990836081218484 0.1026835680623285 )
( 17.83433753570743 2.0898045439026465 0.0967984752400216 )
( 17.86676065130996 2.217220259752688 0.0890916284265449 )
( 17.895950216515597 2.326278715049237 0.0836217322058355 )
( 17.91691956854853 2.4157278918397256 0.0808690546815304 )
( 17.940740284384137 2.503224414339226 0.0787226414204224 )
( 17.968358005026513 2.5962432658344947 0.0776703497900382 )
( 17.998305554397053 2.689703913505497 0.0767199656519217 )
( 18.02992106668991 2.78167125361413 0.0762080048079936 )
( 18.0638089075439 2.881900959062544 0.0768166571791093 )
( 18.102979392410788 2.981608973723461 0.0764966485146138 )
( 18.14562170276672 3.077661316229191 0.0763094201641083 )
( 18.18768850428339 3.178921101507857 0.0763202780418965 )
( 18.228130133285305 3.2829402440729685 0.0764376633665349 )
( 18.27128928549547 3.384064771372336 0.0777460692438915 )
( 18.318951254748 3.478471596117372 0.0795936831415361 )
( 18.368123585952212 3.5717325000293925 0.0804673085537826 )
( 18.417908668829284 3.669321995923339 0.079607453302974 )
( 17.69806086209677 1.9801801878646872 0.130925013751139 )
( 17.687600946495067 2.042279447970348 0.1331312954274334 )
( 17.689512160175877 2.171647718449403 0.1320194789031434 )
( 17.69657125097758 2.319791834863498 0.1290033743606687 )
( 17.69809687546534 2.433941543900678 0.1285584487724366 )
( 17.696247892978388 2.5396460142469017 0.129190171242506 )
( 17.69837676928556 2.645859209083977 0.1284481769889979 )
( 17.700879451197913 2.755972135315306 0.1279036953402432 )
( 17.705875811926607 2.8676533490716336 0.1260608937522622 )
( 17.71223990445056 2.977836537286427 0.1233852555770729 )
( 17.718561436701556 3.0981638730694083 0.1197292401839213 )
( 17.723700506715048 3.2253331082690697 0.1142176475241657 )
( 17.728602798293196 3.351805198915409 0.1078385123279045 )
( 17.736975733926897 3.480951344593056 0.100301615431389 )
( 17.74494731175921 3.607018813171156 0.0924920348875909 )
( 17.75447404286773 3.724983541300757 0.085403875304771 )
( 17.765219912659447 3.8321460509364855 0.0789732809079333 )
( 17.776027285720534 3.9402593188476 0.0723507086385898 )
( 17.792270379009796 4.047204657371424 0.065396372052483 )
( 17.576726795119825 2.0120170425926656 0.159900446905189 )
( 17.54372686514656 2.085869529932782 0.166922393473881 )
( 17.519515241100688 2.2353120088217997 0.1685035192789709 )
( 17.495044458978963 2.3959237789016217 0.1670573151365371 )
( 17.46602389100784 2.515503959929896 0.1668790256567164 )
( 17.440501208974535 2.63427855586143 0.1650784666766994 )
( 17.418080846673874 2.7560427695441945 0.1602359828103041 )
( 17.3891448998033 2.8781003969415853 0.1543109189560487 )
( 17.363038878087504 3.0053310543545484 0.1455223375295705 )
( 17.340382129158755 3.140295296651042 0.1349536283608995 )
( 17.314721816145408 3.2809536888278146 0.123044310722637 )
( 17.287726582742273 3.4304818207971763 0.1094897430908297 )
( 17.262612203355875 3.583260543620832 0.0949302223135136 )
( 17.241211600063096 3.728835910579296 0.080366978412866 )
( 17.222687230758208 3.8605654575745176 0.0678320369509775 )
( 17.207078367314608 3.977400991697317 0.0567698226624865 )
( 17.189501145562875 4.082331139190987 0.0470061166364992 )
( 17.171189586387136 4.186984103915687 0.0380646999912384 )
( 17.162196394139972 4.294751874888909 0.0300907577346874 )
( 17.436137622690023 2.0372326569913914 0.1898589706206986 )
( 17.378069950460226 2.121105453707873 0.1982805417971528 )
( 17.326003676579347 2.279152712641144 0.1981352637163663 )
( 17.268606063322945 2.446246092444777 0.1930918369702468 )
( 17.2068242787763 2.5744109622869296 0.1877370805248044 )
( 17.150835285673878 2.7006402920665527 0.1791375397562826 )
( 17.093266285189426 2.834984068479418 0.1665775073207931 )
( 17.031534615205434 2.970560207046202 0.1520801139702381 )
( 16.97779151660167 3.111316044295661 0.1352897113677164 )
( 16.927052323965196 3.2615649371017503 0.1166762291058157 )
( 16.871409076476816 3.419645233460112 0.0965233552730456 )
( 16.822363467400184 3.582558501345183 0.0765475488034886 )
( 16.77907974257118 3.74334101841043 0.0583331450006737 )
( 16.734391730079974 3.897068237891445 0.04163782907227 )
( 16.69095803540967 4.028887376578678 0.028870383663588 )
( 16.651291231506857 4.141282277820384 0.0192513372082655 )
( 16.61294619166463 4.24316320562292 0.0117177055840706 )
( 16.57261275506114 4.34622266011964 0.005447388003907 )
( 16.53735937288276 4.460103428797552 -1.979604936003577e-05 )
( 17.28240949835322 2.0546478838096665 0.2161895005885167 )
( 17.202362459635726 2.147907326567666 0.2207522122568724 )
( 17.121531645118367 2.3138762804342514 0.2144220057281601 )
( 17.030815724608956 2.4821586871102306 0.2028727243593496 )
( 16.93928844024207 2.615346649426588 0.1894122296963943 )
( 16.853392378148865 2.747281043172102 0.1724966421070146 )
( 16.76348662278589 2.890177439864265 0.1517819397774988 )
( 16.674583996737724 3.0363278299233336 0.1287299979704975 )
( 16.59479486573006 3.183132829957225 0.1058341095063296 )
( 16.51646344114479 3.340458703421057 0.0824796121187324 )
( 16.437099354987502 3.512133620171661 0.0589993860150782 )
( 16.36406090410695 3.6859307364920615 0.0384056336298245 )
( 16.294915304318558 3.853146009521789 0.0214238728965026 )
( 16.2250308572726 4.0096315935598765 0.0074628513916468 )
( 16.155789309828837 4.138005509157058 -0.0022212952312258 )
( 16.089515327735864 4.253130728198412 -0.0089762784434091 )
( 16.027686427875636 4.362983378015186 -0.0133586250551979 )
( 15.967508116855653 4.472547675637462 -0.0160955856164308 )
( 15.90939939046622 4.595181236021122 -0.0178877289451101 )
( 17.123132784570995 2.060981249261935 0.2344549221704011 )
( 17.020192552523834 2.163103732924943 0.2323992628874733 )
( 16.90756473085275 2.339704101142932 0.21665263332429 )
( 16.78976334631929 2.507956124758231 0.1966908477277891 )
( 16.675424180954536 2.643411256632701 0.175381585045757 )
( 16.566482685767824 2.7811512658129565 0.15096259366561 )
( 16.456472707095166 2.925739203457684 0.1245609287771777 )
( 16.344680565723532 3.0749886752382087 0.0968786020420076 )
( 16.23391270208646 3.2281751004230306 0.0709055473032935 )
( 16.126749600182023 3.398309461779485 0.0461428080102222 )
( 16.026699059817805 3.57703723277302 0.0245218159159498 )
( 15.9270046403902 3.754920476348896 0.0073923078771853 )
( 15.83235849608552 3.928118852043498 -0.006142890927899 )
( 15.74277270489003 4.084612069402519 -0.0154081694210969 )
( 15.65240668388807 4.21559243307996 -0.020978999182759 )
( 15.569273054053983 4.331476384279098 -0.0241748455303617 )
( 15.489322109192306 4.4434205561060285 -0.0256731195652763 )
( 15.410494864905171 4.556451286186879 -0.025921817723524 )
( 15.334283820159564 4.68377336589321 -0.0247037655567559 )
( 16.95370560033768 2.0614247741870204 0.2440909253609026 )
( 16.830873701071074 2.17254626384338 0.2342339203054657 )
( 16.694808770542434 2.354605222431822 0.2090346317387046 )
( 16.55513842191323 2.519994285923905 0.1799605124819366 )
( 16.422372760706732 2.6554312271733966 0.1521913253853201 )
( 16.291351720843853 2.7943504239751493 0.1230469193276852 )
( 16.161328409196955 2.941635540940495 0.0932637698120255 )
( 16.03002971284667 3.0951423743867017 0.064624803685275 )
( 15.894686039942028 3.252564996784305 0.039201659822222 )
( 15.76977877978208 3.427560756373916 0.0175763324909555 )
( 15.64809200864122 3.612518356869328 -0.0004910100203173 )
( 15.52337422015996 3.7974587569975866 -0.0139508778734495 )
( 15.408677803031797 3.9708731754933537 -0.0227007048617546 )
( 15.300307253530637 4.125412117128947 -0.0282532339083959 )
( 15.192187509666814 4.261670426132035 -0.0307115655855203 )
( 15.09074504846229 4.376652414377149 -0.0307890728662788 )
( 14.99426721126476 4.4874138046777885 -0.0299039747290182 )
( 14.897900024817718 4.606486568243008 -0.0279829451839964 )
( 14.804581850339757 4.738647743447034 -0.0250789623285755 )
( 16.789240312316895 2.05660161552924 0.2456704902165788 )
( 16.64868870226119 2.170480117621449 0.2277459307785696 )
( 16.494273946995488 2.352287827496946 0.194397069517305 )
( 16.336532641237685 2.515457794543918 0.1586511942912725 )
( 16.184722353088898 2.6520083331833804 0.1257402386523981 )
( 16.03434142172863 2.793486387301673 0.0942098818314968 )
( 15.88374694610311 2.944406095116258 0.0640854658139198 )
( 15.73547947151004 3.0980723310425327 0.0371599564683643 )
( 15.581040649144205 3.25838746538246 0.0141867912186156 )
( 15.437287502805306 3.43979910502841 -0.0037826832534377 )
( 15.293065121402352 3.630296075663345 -0.0176234414268391 )
( 15.150234646210416 3.820553168187124 -0.0274683596694953 )
( 15.017513409193642 3.9955484243364703 -0.0324151801105556 )
( 14.88661333474946 4.145666338830855 -0.0344433452711713 )
( 14.765497481347229 4.276259516199633 -0.0342679217960207 )
( 14.647856850624787 4.392912874646362 -0.0327317453033164 )
( 14.534512025754085 4.5091420431483895 -0.03035872804411 )
( 14.423414545987573 4.635788988183534 -0.0270628767765298 )
( 14.315454311913632 4.774193227245614 -0.0235682824336229 )
( 16.63179966534284 2.04048094270286 0.2397658744137746 )
( 16.474476451069673 2.152327971542833 0.2141081627879811 )
( 16.303046643718584 2.333698252020544 0.1744062449175922 )
( 16.132237829845273 2.4950358477179666 0.135197915243452 )
( 15.962011543021308 2.6358108013974797 0.0994604395421497 )
( 15.79747658608716 2.7774993221087847 0.0678093338008379 )
( 15.632130808401357 2.926594289887438 0.0396698320264095 )
( 15.468936681695943 3.0862181809426605 0.0154418904637272 )
( 15.301152968611884 3.253766457609801 -0.0038889643807931 )
( 15.1286143610886 3.4371565215045004 -0.0191350975140475 )
( 14.963217668380889 3.630919605961752 -0.0291106180065676 )
( 14.807522833581013 3.82138715136812 -0.0349559963950947 )
( 14.65346481221808 3.997526150746202 -0.0375191652956449 )
( 14.504789837909334 4.148542863997495 -0.037001247101784 )
( 14.371257554022137 4.276530498226861 -0.0351201341230451 )
( 14.238564221652192 4.3973114617605065 -0.0330408892333795 )
( 14.108586478013262 4.517640739837595 -0.0299303565802513 )
( 13.981704355630736 4.648177268311781 -0.0262079304053263 )
( 13.85663601826471 4.79301131006424 -0.0222882018935619 )
( 16.47848397079201 2.0212008525895846 0.2281863567421281 )
( 16.309077572933983 2.136957083340158 0.1952927507704394 )
( 16.124050924633043 2.315446178085504 0.1511231310279888 )
( 15.94038874577736 2.4688343127450825 0.1112093568626281 )
( 15.75916140603674 2.6113009392832534 0.0761149341432263 )
( 15.582040409778468 2.749658010835503 0.0458467151716438 )
( 15.398524485184584 2.894410752202502 0.0194349129780764 )
( 15.212798068168784 3.057389952894259 -0.0024785968593522 )
( 15.031352724685506 3.2271905293879457 -0.0180864757190923 )
( 14.84297917090466 3.4127335222270263 -0.0295294947117394 )
( 14.66120833237708 3.613955083511171 -0.0363115180055456 )
( 14.49012370112328 3.809140079676955 -0.039187019847907 )
( 14.319818719970218 3.983016345792149 -0.0395159345981028 )
( 14.159618972897007 4.135335883731412 -0.0376871431967496 )
( 14.009322031794415 4.265879127166642 -0.0352347081856132 )
( 13.85893449651998 4.387756822832131 -0.0324261052182499 )
( 13.709115078801672 4.510419891178715 -0.0288778042070551 )
( 13.564363280204669 4.643827326567156 -0.0255420086350441 )
( 13.42384594254208 4.795947327196239 -0.0226022611322867 )
( 16.341283089305392 1.999781589117806 0.2126466628794325 )
( 16.16447156030686 2.1178349015649625 0.1755940844359053 )
( 15.960113522330628 2.291786233358588 0.1286677934926422 )
( 15.766846585560948 2.4363482160294505 0.0890183142348693 )
( 15.575881169954853 2.5745737909536865 0.0556552915344326 )
( 15.38125806661859 2.7119771606952874 0.0268144267055281 )
( 15.181295204712915 2.852937396129862 0.0024024481658421 )
( 14.980966796525374 3.011462171635167 -0.0161018840466879 )
( 14.782843556278756 3.187511088367773 -0.0286341742760913 )
( 14.583752297497764 3.3777011432103348 -0.0368484653043646 )
( 14.386495819230287 3.5808443609709704 -0.0409174983263701 )
( 14.19375878670182 3.7840546061610434 -0.041674159684904 )
( 14.013228258151504 3.957348848505952 -0.0401472829443061 )
( 13.84149780066107 4.110538004423386 -0.0374987464037413 )
( 13.67013328168861 4.245229411549849 -0.0345088819986975 )
( 13.498499440252209 4.3680013615472735 -0.0317253515762921 )
( 13.330414110639206 4.494340224456304 -0.0292179854164651 )
( 13.172204702636384 4.633133532450867 -0.0270367233522063 )
( 13.017055524595118 4.794249856982988 -0.0250051196455344 )
( 16.213518325981138 1.9715738381728745 0.1932653764779592 )
( 16.02530398085283 2.089676714613974 0.1539917279246701 )
( 15.806749491387237 2.260422388955777 0.1075158888441091 )
( 15.605487065873264 2.396075176337495 0.0695039641468187 )
( 15.40179124711342 2.5266956999035384 0.037755632665285 )
( 15.191473491603224 2.6643582225877283 0.0103985822128776 )
( 14.984226770625956 2.8107299887022363 -0.0106098833786864 )
( 14.772170909129573 2.971090551676263 -0.0257295767779305 )
( 14.55813989288034 3.1496264629696262 -0.0361273012408858 )
( 14.344041558728682 3.340643522593774 -0.0422199779129454 )
( 14.131119203269382 3.542304472302689 -0.0436966854568095 )
( 13.921068845894872 3.743358758240842 -0.0426636705868347 )
( 13.723233090925902 3.922374109378009 -0.0405045259464183 )
( 13.533372193275149 4.083788621855049 -0.037604836198207 )
( 13.341620159578095 4.220838453917473 -0.0345770552903917 )
( 13.154470278000002 4.342356718448807 -0.0324666955923494 )
( 12.975439795307045 4.4718746872512165 -0.0312242667606548 )
( 12.805242197468525 4.622520138249361 -0.0295183120117321 )
( 12.636811923322728 4.795458191016017 -0.0268020110009709 )
( 16.09120077676101 1.9328311304333567 0.1723787547891364 )
( 15.894022996946635 2.0516489095254475 0.1318255898328081 )
( 15.669517482560495 2.219504542064843 0.0875319142514638 )
( 15.45643541416927 2.3527291552573484 0.0517720247546354 )
( 15.24271764842788 2.4837135595106736 0.0220661581370112 )
( 15.022458331308655 2.62137927088649 -0.0028232657518172 )
( 14.80427740548808 2.768234294702816 -0.0208697713734809 )
( 14.576478897180182 2.9269380672529137 -0.033248305946002 )
( 14.345726929697664 3.1021283716937487 -0.0412697459917416 )
( 14.119526599755726 3.29728663322144 -0.0452852058337572 )
( 13.890535041032912 3.50697362801018 -0.0453202148509489 )
( 13.665629115891456 3.7067872617053097 -0.0434265204767494 )
( 13.446449319130837 3.888182635936911 -0.0408384709152525 )
( 13.23241068289351 4.052102079988653 -0.0379379336110238 )
( 13.028396471364283 4.185346585243428 -0.0360614829241848 )
( 12.83521924722552 4.310149397598133 -0.0344237248020918 )
( 12.645346060863435 4.449139159675121 -0.032647488843739 )
( 12.458622802734045 4.610038744504318 -0.0297807996809578 )
( 12.268786679844574 4.797174965762348 -0.0252316563262313 )
( 15.979528915049553 1.8853330038959104 0.1522243691609382 )
( 15.780261765484603 2.0051955611167243 0.1127440268361837 )
( 15.544994701881851 2.171371228671489 0.0695030673067101 )
( 15.32081801084828 2.303317128177397 0.0356403971820547 )
( 15.09644854436564 2.434967206883328 0.0085850473021106 )
( 14.87026055653575 2.569028587326324 -0.0127621027707936 )
( 14.639541847821532 2.7137861596153456 -0.0287689039949985 )
( 14.402816356893034 2.871638538911544 -0.0390873307475743 )
( 14.15643831957966 3.046019692943873 -0.0447832220167915 )
( 13.911451472642408 3.2451033126128026 -0.0473758831246896 )
( 13.665448299745115 3.4599884446273825 -0.0471120400050107 )
( 13.420694984433412 3.6676702534922274 -0.0446788796308034 )
( 13.183930193855112 3.853824873389365 -0.0412814019489675 )
( 12.95675597069573 4.011401149493921 -0.0388481446936024 )
( 12.74178922136351 4.144008389325475 -0.0378574725609328 )
( 12.534405719664194 4.280463719301039 -0.0357619521227906 )
( 12.330168133589543 4.435433672575641 -0.0324869018386092 )
( 12.119723041868912 4.601223453529715 -0.0279231726843721 )
( 11.899953168143888 4.79555284397058 -0.0220839155290255 )
( 15.880133444597364 1.8377702252923136 0.1320865913468875 )
( 15.67279918842883 1.9583053968581476 0.0942566796395678 )
( 15.418584100625768 2.124351206127179 0.0525282199512956 )
( 15.18676576632394 2.249241264006485 0.0210845909581134 )
( 14.957461993913803 2.37655836394858 -0.0030063839970964 )
( 14.726329596163604 2.509079365055393 -0.0212524612511293 )
( 14.483666640314404 2.651898462889436 -0.035042971666335 )
( 14.233153678953126 2.812656868135747 -0.0438664527745386 )
( 13.977002526086851 2.987745632572965 -0.0482945316468377 )
( 13.716015395073748 3.185269318095959 -0.0499113249188386 )
( 13.4488229045527 3.4046509839483843 -0.0491362520892941 )
( 13.1818891576196 3.6165107083989225 -0.0457219552396767 )
( 12.92761936173754 3.8084733000378432 -0.0420579546204997 )
( 12.693223414916163 3.966002425398284 -0.0403713645226417 )
( 12.4692082986466 4.1029323636167385 -0.0386890597640771 )
( 12.245990731909991 4.248976609089239 -0.0355965516635832 )
( 12.01724966198467 4.412985255519004 -0.0313609235359955 )
( 11.780175379734157 4.592907150631321 -0.0258402417871334 )
( 11.556361672951724 4.813160599689429 -0.0208845509746337 )
( 15.789464934214674 1.7911007370395218 0.1126152863665419 )
( 15.573126206646256 1.909626533561299 0.0760502846654809 )
( 15.30667634272049 2.072187834146059 0.0376587017641316 )
( 15.06624230850087 2.1898593882467208 0.0090290976643055 )
( 14.831140200213133 2.3093115587358084 -0.0127978076692792 )
( 14.592074966930696 2.44662902999798 -0.0287061188021246 )
( 14.339293129104572 2.586081971038422 -0.0404429795327086 )
( 14.072313513170196 2.742215956279469 -0.0476070840357482 )
( 13.802366835198775 2.924506146659853 -0.050733467782052 )
( 13.526970395057662 3.1215227817982907 -0.0513522314161184 )
( 13.235369566252572 3.3485723834885968 -0.049858345531974 )
( 12.945363327885628 3.5690406809091293 -0.0465077324433406 )
( 12.68389082776886 3.756921854687662 -0.0435393872425524 )
( 12.445975921814458 3.9152148495292503 -0.0409496895325725 )
( 12.209876226883596 4.061247065613621 -0.0378839513231884 )
( 11.966431833471963 4.2153816382568445 -0.0346739134202592 )
( 11.710193644547193 4.387178108506663 -0.0297335743207095 )
( 11.457682854231988 4.592929400914794 -0.025435074134708 )
( 11.263843785420788 4.867692063823196 -0.0223351980644979 )
( 15.707223384195274 1.7428258629667577 0.095003045128227 )
( 15.478501514058667 1.856537894177979 0.0596930471306069 )
( 15.20518478422153 2.01750316745396 0.0247800383911065 )
( 14.962736013418017 2.131459210491045 -0.0009597211274572 )
( 14.719245256827238 2.2473353580254822 -0.02041193519745 )
( 14.465799020297643 2.3826982338363574 -0.0347507250433778 )
( 14.200391095203972 2.5171603595892846 -0.0453428270663236 )
( 13.928099482828502 2.672248803845083 -0.0506545189673202 )
( 13.642742441319536 2.8592263180976487 -0.0524653397003695 )
( 13.344604221321749 3.0544197943192133 -0.0524112971564985 )
( 13.041851712826904 3.2790098233036784 -0.0502287043371885 )
( 12.738366929637522 3.515509664629151 -0.0469877189630112 )
( 12.46667180370614 3.706320032817001 -0.0434403148889112 )
( 12.215063064853544 3.862560291125985 -0.0396523281614941 )
( 11.957167833124185 4.017373532349978 -0.0368979619565697 )
( 11.683705624843872 4.177871876863366 -0.0336249435190219 )
( 11.411063198737656 4.368477181085154 -0.0292943688409965 )
( 11.17474882102753 4.616401337843062 -0.0270875903330373 )
( 11.022172321930816 4.948484468065203 -0.0228802559380913 )
( 15.627472253297285 1.6926212033653882 0.0779431829985334 )
( 15.390687770581003 1.801941430675572 0.0451478027303453 )
( 15.110541599626348 1.9576818933928744 0.0131220023720274 )
( 14.867407270217214 2.0678191368060954 -0.0096798228779377 )
( 14.617562882185114 2.185934460433316 -0.0269497596050435 )
( 14.351297241627876 2.3182437563279423 -0.039832365775719 )
( 14.07640821721014 2.443659839526825 -0.0493462117392444 )
( 13.793476230500923 2.602139208733975 -0.0534173874938163 )
( 13.490942865697448 2.7940740940222137 -0.0541561460600814 )
( 13.17556844759632 2.9943443065426933 -0.0534497245743649 )
( 12.854707584557516 3.2139973347469426 -0.050602366168071 )
( 12.538371758850769 3.442134720050918 -0.0468486846168057 )
( 12.255529055113062 3.640299201514319 -0.0425837118112972 )
( 11.983355083689654 3.807995468812295 -0.0384328828908845 )
( 11.7001375844115 3.96308260745862 -0.0356260715192424 )
( 11.408317084813218 4.133486198865435 -0.0320456788241717 )
( 11.132995868033976 4.355267579527865 -0.0295680801332849 )
( 10.9327822061531 4.660207026202481 -0.0277405804832711 )
( 10.78005080450947 5.026720696144043 -0.0218641455924527 )
( 15.554420051015535 1.6400235322311958 0.0619816501442213 )
( 15.31231670881346 1.7443658069637162 0.0323065018267519 )
( 15.02191645182024 1.891022892402913 0.0030098244176031 )
( 14.777611042952136 2.001027516675552 -0.0173055547379143 )
( 14.520190845779272 2.1167539508663484 -0.0327564752816771 )
( 14.24077785412628 2.248253373302473 -0.0442280770373535 )
( 13.966120440935851 2.374635777068519 -0.0521782123231603 )
( 13.6694532956874 2.526466716132194 -0.0556197020682813 )
( 13.346165201060318 2.7196416623884057 -0.0560400090274287 )
( 13.012620400243202 2.9294483734880945 -0.0545325294839745 )
( 12.669415207209894 3.154805293695982 -0.05073665679013 )
( 12.34737294175129 3.373693125345201 -0.0472065181980535 )
( 12.046849542238087 3.5683108379838364 -0.0436148322806471 )
( 11.74964213942476 3.745113434244045 -0.03859674821608 )
( 11.452579912614818 3.910269990034146 -0.0342748998298144 )
( 11.15579031731095 4.106232130472445 -0.0304891002181174 )
( 10.890280540907751 4.370847915505358 -0.0296364590304105 )
( 10.708838191330782 4.72022573841105 -0.027838231246706 )
( 10.447599834433753 5.051127917733055 -0.0224972665358626 )
( 15.491808557124108 1.5857115961317687 0.0485829675346648 )
( 15.23880897394046 1.6808946600261474 0.0206003409692202 )
( 14.94010004368416 1.8217920765420812 -0.0060752062883636 )
( 14.691488665190167 1.931641097415412 -0.0240248024125494 )
( 14.42774275546676 2.046898976851101 -0.0379668256451998 )
( 14.139391623182682 2.180848191988177 -0.0482211264161025 )
( 13.853609631549077 2.3073598296587705 -0.0543607184271362 )
( 13.549866629484324 2.452037707791882 -0.0568840630677843 )
( 13.214949371129382 2.6394697126446527 -0.0571872333725644 )
( 12.860632369434237 2.848245080600869 -0.0555983080987502 )
( 12.501126643541214 3.084074405083527 -0.051370379521803 )
( 12.168808749007518 3.310763103898911 -0.0476375749666589 )
( 11.8457675899564 3.501987927784961 -0.0449226145242794 )
( 11.528784544965552 3.676263563509455 -0.0398656373250266 )
( 11.215222146723416 3.86892083472562 -0.0338988971913511 )
( 10.914709407302452 4.096354866782032 -0.0308376100485701 )
( 10.671401451598747 4.4018415937670285 -0.0307763178986735 )
( 10.443615182404985 4.771788884161809 -0.0259477349765559 )
( 9.980305170329553 4.996683703846045 -0.0225018138578556 )
( 15.430109237586736 1.5251046330160716 0.0359887145018897 )
( 15.174016267667476 1.6186592196574434 0.0101978347766396 )
( 14.872459315019224 1.7531985845874094 -0.0137534063637222 )
( 14.61294163579992 1.854832544510452 -0.0298283352133828 )
( 14.342767364794373 1.9721796043455084 -0.04243162794567 )
( 14.049610862597444 2.110561969328755 -0.0514680540210523 )
( 13.749967310543363 2.2333224593279715 -0.0562873292630688 )
( 13.439544490810423 2.3727414897598496 -0.0581995614834469 )
( 13.086275910199449 2.5612950221403707 -0.0577036523779059 )
( 12.716099403292048 2.7716272615044635 -0.0561329524917125 )
( 12.343017029530513 3.0078328839840904 -0.052366851199006 )
( 11.986114898790223 3.240575807536502 -0.0481124321244518 )
( 11.652768257001632 3.4400188444728657 -0.044577745584163 )
( 11.329461038160106 3.6163653706835626 -0.0388850020758504 )
( 10.997792733332604 3.830159564693869 -0.0342902143665293 )
( 10.688687717389705 4.095106471008408 -0.0334048564718155 )
( 10.452200227513377 4.434669059156862 -0.0306359591370209 )
( 10.12798419763682 4.791723661707294 -0.0240431203381076 )
( 9.352041465201143 4.83366414595772 -0.022435086830074 )
( 15.371597009906331 1.462682163235127 0.0233966600851585 )
( 15.114660061472383 1.5574931020304394 0.0012303108045884 )
( 14.809694363007356 1.6891694406347468 -0.0200819768917661 )
( 14.545155215063136 1.7867298116466526 -0.0348111699268327 )
( 14.26445894964531 1.9010779528812365 -0.0458417768307361 )
( 13.956413958283491 2.030018301378191 -0.0539592245562497 )
( 13.647560464620891 2.152517370482672 -0.0582900254592919 )
( 13.330925413116097 2.290119795001061 -0.060080481097298 )
( 12.95341311536477 2.480640125485472 -0.0588737236867314 )
( 12.568221973663828 2.6994328050363365 -0.0563888995059105 )
( 12.192092543170576 2.9316267253736976 -0.0525542403538279 )
( 11.825196828209084 3.166963527220008 -0.0477815854279422 )
( 11.478783062930846 3.377354833029417 -0.0431841062738849 )
( 11.130965296517177 3.563446350284302 -0.0367437892675947 )
( 10.791521333036677 3.7897162842230343 -0.0329583633189352 )
( 10.485046943674426 4.091803614228339 -0.0324550771351257 )
( 10.20016129628731 4.459509348509729 -0.028843652523306 )
( 9.787981285570128 4.783205976723425 -0.0249924903038786 )
( 8.508749765672126 4.514911699541391 -0.0208662034331196 )
( 15.318269343555674 1.4069479646913872 0.0121467106874692 )
( 15.055777380123748 1.4977644930524026 -0.0073051693690648 )
( 14.747576095092768 1.6251178330000036 -0.0261625789979768 )
( 14.48297182904049 1.7225810433680833 -0.0392475893413146 )
( 14.192139792936878 1.8308478251672036 -0.0491872675496032 )
( 13.875521324534612 1.949599407845973 -0.0563753707894232 )
( 13.558289457036318 2.0774199874405093 -0.0598944578954095 )
( 13.22587362973736 2.223092949213511 -0.0609622339326685 )
( 12.82940468277497 2.407628960282628 -0.0597985841082674 )
( 12.4236575091754 2.6288476772494933 -0.0565594223241267 )
( 12.04046112068816 2.8566413091546266 -0.0515785824009812 )
( 11.671559202982468 3.0797133881219665 -0.0468401277537427 )
( 11.308016164266334 3.291683675949085 -0.0418985795701536 )
( 10.938201753051278 3.498119272029462 -0.0363047964904197 )
( 10.58898983874581 3.7507340740207935 -0.0314548832847501 )
( 10.27590430447571 4.083785210052086 -0.0281294663299047 )
( 9.914288635260371 4.461426649111813 -0.02523968229837 )
( 9.260117025641112 4.65651091500112 -0.0217717093362016 )
( 7.659968321916775 4.158884232741136 -0.0157374315155226 )
( 15.271555382519557 1.348859308821857 0.0026599911003383 )
( 15.004324043392524 1.4384910821599195 -0.0148711022216222 )
( 14.68802586281489 1.5617657412776504 -0.0316249197448647 )
( 14.420140974613291 1.6528863537481246 -0.0431019598123265 )
( 14.123982732741815 1.761026157356735 -0.051841149752757 )
( 13.807611942345858 1.8826314032865032 -0.0588168501748891 )
( 13.487131861340004 2.0100264703445294 -0.0618866078566709 )
( 13.132958837628246 2.154283462572955 -0.0619469268422974 )
( 12.724937334702163 2.3374106197073523 -0.0607861492790106 )
( 12.310286428055694 2.556863074133769 -0.0570389584155557 )
( 11.908733712141304 2.7833047679103062 -0.0517372406455255 )
( 11.514047687694177 2.9987026050135506 -0.0467802292120394 )
( 11.129856622971133 3.2060209950581293 -0.0425986615946686 )
( 10.74919753062034 3.427072288106912 -0.0387111751943567 )
( 10.393965320009125 3.713275895334176 -0.0333563177720063 )
( 10.056002280202804 4.0838177065926695 -0.0288947994273514 )
( 9.622551089625292 4.447110945788882 -0.0236638382829981 )
( 8.648757660542211 4.441573025267839 -0.016653863019759 )
( 6.908275116323753 3.820648132473364 -0.0129109377782622 )
( 15.230141816212567 1.288291777086802 -0.0059950394572929 )
( 14.962600715969126 1.377465030725873 -0.0212272534628403 )
( 14.637838919274392 1.49919311055575 -0.0358008606115031 )
( 14.361527044661344 1.584649999822103 -0.045880406119006 )
( 14.058052607077752 1.6888336690409775 -0.0542287935771503 )
( 13.738381168138428 1.8103239194520884 -0.060725032017031 )
( 13.41082655901281 1.927185093998967 -0.0634158797643183 )
( 13.04423510986472 2.0704811253431874 -0.063099376133362 )
( 12.63615285888644 2.263575519227852 -0.061594945415242 )
( 12.213408509735356 2.4807929841076377 -0.0577702062456237 )
( 11.789361372540352 2.710688545199144 -0.0532694391673768 )
( 11.368304783784604 2.921208369646249 -0.0478559040723254 )
( 10.965400093829317 3.1256280996648327 -0.044739776499702 )
( 10.563894447715676 3.3663366592588027 -0.041469866851234 )
( 10.196154689764128 3.674845159913441 -0.0344241530066228 )
( 9.807346988100807 4.0632399651101005 -0.030486829099444 )
( 9.275499347146244 4.382318216226776 -0.0257655630864914 )
( 8.108844170698001 4.220635509637584 -0.0159674259844303 )
( 6.19196433400924 3.4640471485563102 -0.0120509070667 )
( 15.19363448166105 1.2355643133719043 -0.013159820393622 )
( 14.923493695314516 1.319356665422195 -0.0265081085720867 )
( 14.593054281430788 1.4344441079101284 -0.0396706014929517 )
( 14.309771909197485 1.5187081446091946 -0.0490019956619682 )
( 13.99977517214641 1.6163549205889172 -0.0569275949921761 )
( 13.676958094657 1.7286680211016612 -0.0622666811528071 )