/*--------------------------------*- C++ -*----------------------------------*\
| =========                 |                                                 |
| \\      /  F ield         | OpenFOAM: The Open Source CFD Toolbox           |
|  \\    /   O peration     | Version:  2112                                  |
|   \\  /    A nd           | Website:  www.openfoam.com                      |
|    \\/     M anipulation  |                                                 |
\*---------------------------------------------------------------------------*/
FoamFile
{
    version     2.0;
    format      ascii;
    arch        "LSB;label=32;scalar=64";
    class       volScalarField;
    location    "0.0054";
    object      k_LES;
}
// * * * * * * * * * * * * * * * * * * * * * * * * * * * * * * * * * * * * * // 
 
dimensions      [0 2 -2 0 0 0 0];
 
internalField   nonuniform List<scalar> 
13597
(
0.1461534906826644
0.1459565622937086
0.1443989129786695
0.1434737044925398
0.1430992877112276
0.14114511361249
0.1386535979744292
0.1366036417047707
0.1343095707590318
0.1320931400061074
0.1301395832180738
0.1283800037376086
0.1266766476044602
0.1248856361802441
0.1228567433211581
0.1210999101740449
0.1201339046208359
0.118087491425818
0.1154254894691576
0.1491521421791319
0.1491851580797928
0.1476810718706396
0.1484510662907955
0.1485902461529692
0.1480929325550765
0.1475678810353214
0.1476804989471054
0.1479371033376791
0.1479659282280425
0.148022079617353
0.1487092191353664
0.1485712679864174
0.1474156958976497
0.1464609275049798
0.1452264157298289
0.1438904679299018
0.1417571120292153
0.1392491993905591
0.1516181318903557
0.1516129940457303
0.1501603804736664
0.1511204888253124
0.1515101752539389
0.1518440191483875
0.1527239345213067
0.1545178696881516
0.156220839383465
0.1585269871171652
0.1601314441994986
0.1614559305636555
0.1615002275165578
0.1597980460938627
0.1580802407644342
0.1557974512752645
0.1531697188166079
0.1499715684991319
0.1465061059964783
0.1515315468387802
0.1511873087956727
0.1499312130455546
0.1513496739169432
0.1526840575367408
0.154116220645958
0.1562063177386977
0.1597170698785126
0.162522141882904
0.1652876186462737
0.1661394477127292
0.1652547963231049
0.1636524036947693
0.1613973671407969
0.1594995254475041
0.1578637548970071
0.1562195333865703
0.1549102818898263
0.1536373608771346
0.151421495521425
0.1500886241330355
0.1492737723130258
0.1523476824286869
0.154878844893056
0.1580792765233606
0.1617351138723693
0.1653741841506047
0.1682059482538745
0.1698610590145487
0.1706003922369338
0.1706653507338467
0.1704068632133552
0.1703675070839234
0.1707069543122375
0.1711621747580407
0.171581428949453
0.1724053098491563
0.1731565757382083
0.1519616408796883
0.150441827752541
0.1499482162728866
0.1544217342370953
0.1580679153855368
0.1622393663130379
0.1669988656123193
0.1706286675356756
0.1740229487383451
0.177133710337577
0.1797591548060843
0.181964122915388
0.1835704767495469
0.1842002600028204
0.1852804945264448
0.1860759008330331
0.1865397059641843
0.1864032427857449
0.1857921835502146
0.1538278609879567
0.152623154056167
0.1529964428369021
0.157551447413388
0.1620387747423579
0.1670096083328058
0.1720628303604142
0.1767703106804122
0.1816307155596525
0.1859505502063414
0.1890513732443557
0.1917203407548936
0.193491179889743
0.1934400985708144
0.1929292722297376
0.1921594547599982
0.1904280870433755
0.1877375523276512
0.1843116446300068
0.1572806001871234
0.1556845432964211
0.1565176249843716
0.1613573354836155
0.1664095785133133
0.1720628142188396
0.1783504753322721
0.1840377031107757
0.1889551284918933
0.1928573619692291
0.1951100560813842
0.1966498080324177
0.1962222944872086
0.1942183699667207
0.1917661733484042
0.1886777094796322
0.1845793036255233
0.1796756192875361
0.1743216353679934
0.160890504097127
0.1588317843052168
0.1599340976383468
0.1648576128822679
0.1701978941247492
0.1771021557621567
0.1840098433489396
0.1894230977660226
0.1936772017065937
0.1963186287821055
0.1970372042341165
0.1962298816751615
0.193031320190468
0.1887808815474879
0.1846271424426401
0.1797821465214411
0.1740341919653006
0.1683943693887295
0.1627605869151894
0.1644203268087851
0.161862480074376
0.1628367649026874
0.1680198508873397
0.1743237531489831
0.1811258811524435
0.1873673910500898
0.1926676997665863
0.1955048307622922
0.1964212282968799
0.1951552579603225
0.1912876146700527
0.1862440523140839
0.1807914851766112
0.1751970792515995
0.1695456075908233
0.1637596988858628
0.1584643354336842
0.1536979316099551
0.1673923218354329
0.1640270831588823
0.1653110745362477
0.1708065891518306
0.1771875904543275
0.1831832131471572
0.1889159520112482
0.1933259701144528
0.1945644355180708
0.1937458494744506
0.1900475307420309
0.1841871681422842
0.178119787456437
0.1719870207170332
0.1659777951365156
0.1604518726276033
0.1558143397362101
0.1517726344891939
0.1481856003294273
0.1697022282006697
0.1657376934185332
0.1675987717559699
0.1729642984623002
0.1787361720967706
0.1844839481979446
0.1889808869227757
0.1909266951122875
0.1909831503755015
0.1882881121137795
0.1827416085880306
0.1763771285889208
0.1698070355975046
0.163877902122713
0.1585144925178483
0.154035702200128
0.1506880569952211
0.1478449920919695
0.14548594618771
0.1716666419403901
0.1676313810283908
0.16967830282682
0.1741724102192562
0.1798676085772165
0.1851180990115844
0.1880127700609997
0.1880095966976357
0.1866908696868029
0.1823301190395791
0.1756321955000435
0.1693547254494695
0.1629414219435887
0.1574821693219787
0.1535294484209324
0.1502749974276945
0.1478251777929223
0.1460423302304272
0.1450542138137348
0.1740112488793377
0.1692391627089731
0.1707205586902324
0.1745792494415574
0.1795830642251897
0.183351948725977
0.1852311812528309
0.1845633569500763
0.1815941021484539
0.1763378191622497
0.1692673275348065
0.1629934163101171
0.1576752340578561
0.1533317831280994
0.1504255403657554
0.1482259633412387
0.1469053745893015
0.1464889472690792
0.1469086929969261
0.1760070919854186
0.1699769473599726
0.1713113210995833
0.1748530075077528
0.1788133419939232
0.1808254155369392
0.1811671486919467
0.1797446505861653
0.1759859933732646
0.1702309619656752
0.1633269436956517
0.1578254609357328
0.1537297680866234
0.1504926297365195
0.1486745463838449
0.1478193174618814
0.1478426667791535
0.1487748904972075
0.1513974997723105
0.177061187326621
0.170413103487143
0.1715677450001247
0.1745734460655461
0.1773279701455386
0.178637303077187
0.1779826136749792
0.1750753656703052
0.1705875624269178
0.1641346425637591
0.1581950219601377
0.1542968156027626
0.1509523418881447
0.1487421751375389
0.1482036630292112
0.1486289481547269
0.1501317704732529
0.1533384099601672
0.1598308237214039
0.1778253799664609
0.1709770314369806
0.1713755770205431
0.1738924827681333
0.1754943524797516
0.1759359524040652
0.1747028425574299
0.1709716332875888
0.1655847282995771
0.1594709448909765
0.154644204604248
0.1515655115632822
0.1492426734794011
0.1482219950835588
0.1489873397221472
0.1507134537417329
0.1541097271927269
0.1609281249928368
0.1718931835253299
0.1787888582699123
0.1717382293139998
0.1712820823880053
0.1729380474212467
0.1737332707769008
0.1729379061880502
0.1711141017990976
0.1669168234127808
0.1614084234865047
0.1562207582902575
0.151694975538262
0.1492612835257312
0.1484826598266174
0.1485617030542728
0.1505966583430773
0.154053051326905
0.1602147223820878
0.1711969594781528
0.1832695031269197
0.1798138401768666
0.1719869487975794
0.1709856665082568
0.1716460030814307
0.1715227035923247
0.1700672713612743
0.1676233823056028
0.1628641689925354
0.1576942927311356
0.1531889019200135
0.1493714062852221
0.1479366570470526
0.1483557024585297
0.1497863543872277
0.1530962588007693
0.1586957091282591
0.168768878426736
0.1836693970053956
0.1920207863261308
0.1804262169286549
0.1718994429944901
0.1703230266000914
0.169798631765004
0.1687584950939914
0.1669815720772026
0.1641497811419496
0.1593318509086917
0.1546654216728898
0.1506718975477407
0.1477393028911812
0.1474532609846852
0.1489554945368342
0.1515562403523707
0.1567605386412013
0.1653105999374886
0.1795813596399219
0.1966443502414182
0.1973948998368286
0.1816845390971138
0.1724670259575963
0.1697319728937948
0.1679569446654959
0.1660507837622286
0.1637902586149719
0.1610387390523739
0.1567852446457349
0.1523426028977653
0.1485915659353861
0.1464923266492649
0.1473814160619215
0.1498114068574828
0.1535407398283592
0.1610779673496034
0.1735598089097466
0.1915910040175271
0.2076840435242402
0.1934529619242355
0.183221723204032
0.1728646809514696
0.1689888219581518
0.166685713324249
0.164028182973311
0.1612791119198389
0.1585148638150886
0.154474667618178
0.1501114969303258
0.1469460242655057
0.1459553881226813
0.1475882423831661
0.1508356648594124
0.1563797469640778
0.1659825493331727
0.1823570183519715
0.2032812373025946
0.2158840861566577
0.1770135471740569
0.1837535237975489
0.1725399543208872
0.1679862871303934
0.1651186797452731
0.1619345116684489
0.1592562723756588
0.1566987123310537
0.1524361360322942
0.1481056391701682
0.1457676961367701
0.1459803007488395
0.1482385627698124
0.1523474815919288
0.1595560736274848
0.1720110540000989
0.1920039116553125
0.2141315099780803
0.2156272747220437
0.1591804804977702
0.1841730962328848
0.1720095863442197
0.1669975713751504
0.1636553251119761
0.1599121984960241
0.1573160067993742
0.1548279913236791
0.1505372407962079
0.1465725155858388
0.1451363737180347
0.1462207455625321
0.1492389498670053
0.1544247388558102
0.1632209799905495
0.1787258643719659
0.2019754594534536
0.223624066578317
0.2083033451039629
0.1426447410973103
0.1849506585523487
0.1717237161654504
0.1658804569199107
0.1621097197392493
0.1580003252175225
0.1551428040623421
0.1522955336253589
0.1484686128209075
0.1455614217158423
0.144742036868345
0.1463972974527299
0.1502689906967254
0.1566691677018701
0.1680136564650286
0.1862314273194007
0.2115230300146287
0.2298688397619691
0.2002387064793372
0.1255423904521218
0.1856142842891686
0.171459732908258
0.1646142619394764
0.1603260352729965
0.1562363009065796
0.1535603947952651
0.1502802707225188
0.1467604655381566
0.1448087210413719
0.1444297674429058
0.1464933198022221
0.1511740404537659
0.1589020147030606
0.1725570939370003
0.1936051760211124
0.2202107623621191
0.2288778736271039
0.187622297511813
0.1125672048574737
0.1855954577393026
0.1709361819925084
0.1632787915551853
0.1589097094376051
0.1548949419455485
0.1522322326097454
0.1489577151855256
0.1456586153908113
0.1441020870636624
0.1440409822093547
0.1465572263911758
0.15228338733424
0.1611639360076577
0.1764016117199428
0.2002662968497053
0.2271769731783784
0.2262253449443018
0.1741625609162061
0.1017305436952054
0.1851205294044956
0.170130242778671
0.1620060169231982
0.1578418884026245
0.1539878459544261
0.1510975587953484
0.1482167265298558
0.145108948618722
0.1434775382327092
0.1436899494472219
0.1470374052801021
0.1535410015545245
0.1633799284243554
0.1804923875477782
0.2073594425891415
0.2336841726513731
0.2268662556263101
0.1649845928222653
0.0929645312697384
0.1843949479552092
0.169561492714782
0.1612220509919065
0.1567262155814426
0.1532625202619569
0.1503492225431322
0.1477354084821931
0.144734426589019
0.142851199585521
0.1434125141288914
0.1475911401428959
0.1547609408153833
0.1661687648303147
0.1848210308058186
0.213444744722005
0.2379980280187417
0.2246825978085479
0.1571554707590768
0.0871793961008524
0.1835544661692606
0.1687479104317254
0.1603644983952157
0.1557933896265189
0.1525644519707378
0.1494380698742752
0.1469972664360339
0.1441604872070598
0.1424146439031866
0.1433226586606278
0.1477806239200838
0.1558313599710435
0.1684216951715324
0.1887110581002097
0.2186778008658177
0.2347498220755685
0.2139223690427091
0.1492099474936319
0.0833066188027495
0.1826227493830339
0.1675108763683623
0.1593057417601478
0.1549666485802251
0.1516725275802237
0.1486106190909698
0.1461381164826735
0.1435294247480711
0.1423582776709701
0.1436925473187108
0.1481117203021733
0.156691544296551
0.1702000629130301
0.1923402612215286
0.223225846030439
0.2305377112548211
0.2027052268028691
0.1420568158660161
0.0804833810051153
0.1815713783129784
0.1666899338610414
0.1588176641710995
0.1544132136464396
0.1512210372238976
0.1482907201328684
0.1456426227652337
0.1432629665695728
0.1423484776536081
0.1438656686696369
0.1485506923101485
0.1575206212733036
0.1721009656654537
0.1965041103542873
0.2269510246392422
0.23059847239332
0.198033972077086
0.1359115285291078
0.0774489541775779
0.1802837682921193
0.1659076348610807
0.158095640861266
0.1539079665291205
0.1510573428282512
0.1480355060340689
0.1451705797300639
0.1431292348767797
0.1424291664568274
0.1439398363879407
0.1489871100009554
0.1584965202103756
0.1735848201824995
0.199821155813144
0.2305332256712787
0.2320020008666553
0.1959360571321814
0.130996444865422
0.0741503108659172
0.1788771569221011
0.1648010889230104
0.1570539407510759
0.1532897705993341
0.1507088579835556
0.1475649528910654
0.1446871247953369
0.1429432729240512
0.1426477439252489
0.1441492366335417
0.1494795817101913
0.1594384045274436
0.1749442378535233
0.2023715495351919
0.2339034465747193
0.2334919211319929
0.1948407735445598
0.1279704502313459
0.0718907783449525
0.1775883938011627
0.1635916735836196
0.1563275963808886
0.1527756597048358
0.1504039384228055
0.1472486519793706
0.144459493847031
0.1426795464556744
0.1425017941127384
0.144136461409973
0.1496977943475727
0.1598830448865503
0.1760744491814033
0.2046158771905142
0.2363049682158686
0.2337836896051622
0.1930916712871819
0.125656225979707
0.0703461438804562
0.1765122726032043
0.1626654809950296
0.155881942277598
0.1525148916624835
0.1501335232158716
0.1469534907601487
0.1442283135498342
0.1423805813604743
0.1421575552672094
0.1439494732058941
0.149768118185408
0.1600935416112373
0.1770163935263397
0.2060640869186995
0.2376293599633602
0.2339562389761226
0.1906641067142186
0.122609426466923
0.0686180884081576
0.1755329875860896
0.1617233760145393
0.1554602299214425
0.1523699630271192
0.1498779325574019
0.1467422089234907
0.1441712811529916
0.1424266594838678
0.142035417518201
0.1438110212532256
0.1497482052119328
0.160425561338004
0.1779582338927028
0.2075277789351866
0.2383380554999444
0.2330698426687781
0.1892192198007317
0.1212107835411818
0.0672640099004932
0.1742643154449573
0.1606242060872488
0.1550205852258448
0.152388997553038
0.1500103580123463
0.1467947471396777
0.1442089399482813
0.1425300714058794
0.1421563440747023
0.1437166197170143
0.1497226192372128
0.1609024076073953
0.1791791314473267
0.2090619898467973
0.2376687213621326
0.231437381127054
0.1877185467271175
0.120550680059893
0.0664378560867363
0.1726770690587042
0.1595615234050643
0.1546084777336599
0.1523699795842809
0.1502649669773368
0.1470821012621755
0.1443615050730373
0.1423226529996944
0.142158841489426
0.1437181526715572
0.1495943564559491
0.1611085223115849
0.1803976904684522
0.2106265090983728
0.2364009230256872
0.2292133323561468
0.1852969747618736
0.1189482385264289
0.0658313766677945
0.1712068595291356
0.1587968351520066
0.1543984304432616
0.1522289994265778
0.150354629314688
0.1473009944975003
0.1445981347570404
0.1422065945422276
0.141862987057518
0.1436867763791381
0.1494725853917405
0.1609380180448867
0.1808945995544539
0.2118174886476898
0.2356923619790116
0.2264169224917473
0.1833136181944467
0.1178649841655353
0.0654769898547381
0.1700847015719829
0.1585188213321746
0.1544291213633845
0.1522959335719403
0.1505912902540879
0.1474762933774613
0.1447330372998637
0.1421448107851864
0.1414868503365111
0.1436582672250474
0.1494640593391732
0.1608705358125464
0.1812662311812129
0.2121710528786603
0.2340464025254834
0.2229455590126237
0.1809627884369998
0.1166417280694982
0.0652282137127697
0.1690025003329466
0.1581480264058694
0.1543113771623717
0.1522791433056628
0.1506583885741881
0.1477630524786596
0.1448960690982852
0.1420672159526088
0.1414144025438602
0.1437844760389632
0.149428865605939
0.1608978163937391
0.1814142197083073
0.2115882300261736
0.2322430644209411
0.2205544415503177
0.1786184492042896
0.1148753286908741
0.064717349667184
0.1677214033744068
0.1575704187277756
0.1540882682809215
0.1522158430629631
0.1505720298176619
0.1478795558355632
0.1449175127593367
0.1421365632103291
0.1414389044758518
0.1436257253472713
0.1492077143443043
0.1606319278178746
0.18100638675957
0.211376168914831
0.2320774913667425
0.2196090657189188
0.1769038826821521
0.1134143099652703
0.063865284190719
0.1666559214415286
0.1570350953094692
0.1538626419372751
0.1522600736025697
0.1506236371134322
0.1481069625267576
0.1450642648241923
0.1423103217025998
0.1413426138773361
0.1434295182546852
0.1490389394580036
0.1604793686566787
0.1808529742271359
0.211443286023548
0.230795282617299
0.2169863761369184
0.1749845299965778
0.1125015834169218
0.0633808679082214
0.1539760300798543
0.1472442999116686
0.1358863379562697
0.1240801249857869
0.116677767285313
0.1113177965554654
0.1074800194655652
0.105508148871207
0.1054240832425896
0.1069752202954427
0.1100796947221427
0.1148602134534247
0.1208500688693549
0.1280349160267868
0.1358897702313568
0.1437223207055266
0.1521240331911801
0.1602702869344968
0.1676605881376798
0.1418242399169235
0.1333228194876345
0.1203423084464478
0.110599988893149
0.1063154827659836
0.104378401375218
0.1048737795714577
0.1071763127363293
0.1107595374285084
0.116132810373815
0.1234950150928238
0.1324032488256471
0.1419673692856548
0.151508471595214
0.1607452942558409
0.1686874004783067
0.1759496039110941
0.1826254020423722
0.1876480766131475
0.1319068101451412
0.1228038610270646
0.1111602710882888
0.1062254970155544
0.1064732441879779
0.1093453018630709
0.1147077477661339
0.1218827867440962
0.1301129531789122
0.1397396945923369
0.1506893207789816
0.1616645578800394
0.1721599711376174
0.1813832279711072
0.1890797434055123
0.1951028070636107
0.1991118362792642
0.2017106701602723
0.2030662145302847
0.1239387461205755
0.1152206960924777
0.1066375227156193
0.1068494084937471
0.11126385689769
0.1186042542855402
0.1283281560928102
0.1393160007676009
0.1501999645899728
0.1611162513954659
0.1724756694144963
0.182681410984016
0.1916077031045144
0.1986277081353585
0.20303274353071
0.2060503086695165
0.2075893112562861
0.2081905787222976
0.2085082735750612
0.1169948112767442
0.1090665191046036
0.1050993604600834
0.1102972148153783
0.1189089397050808
0.130093473384148
0.1431225241348924
0.156330572769559
0.1685296396263118
0.1798898896282517
0.1901056812818812
0.1984785219242035
0.2050955079496714
0.2096169649948467
0.2119016521035248
0.2131143405346605
0.2134363424544433
0.2126226153864271
0.2108140452912229
0.1102905490071218
0.1047217950501811
0.1059470899078332
0.1165725684962657
0.129798857946602
0.144199134847648
0.1590521816999987
0.1736432617328618
0.1861872673271755
0.1965648977543189
0.2046809428447831
0.2105916410383977
0.2144847682199131
0.2159519227587091
0.21576090375673
0.214570994802871
0.212102636522202
0.2086320756264323
0.2039614628818572
0.1062646569761119
0.1036777767337679
0.1101407151420295
0.1265316265799846
0.1433641515734649
0.1599350661905816
0.1758763535187407
0.1899302177679159
0.2010405170211552
0.208911988965201
0.2141717899962126
0.2167842893221352
0.2169964267914112
0.2153088604993536
0.2120673541466337
0.2078344349010227
0.2023934988102173
0.1960653989201631
0.1885757639477144
0.1048380167256293
0.1055569558683412
0.1185476948609558
0.1390212332475145
0.1576310419327063
0.1753972267154453
0.1913174567320573
0.20312728859238
0.2112348237331666
0.2160045602073391
0.2179500495302775
0.2166607800906774
0.2126377493048589
0.2077248816443807
0.2018858570818575
0.1951532022684061
0.1873844032505605
0.1785617972665823
0.168909747007993
0.1062958984873136
0.1114241200472758
0.1294835591655649
0.1526368729340197
0.1722250435044282
0.189387777389139
0.2034794607210445
0.2130538958479902
0.2177252625019262
0.218304502338266
0.2161398988453407
0.2112955389500469
0.2043281222477525
0.1966890287009665
0.1885410733054605
0.1797568331036468
0.1702584397300362
0.1601358130447675
0.1496355551441019
0.1096255605038759
0.1189967136177574
0.1415580499795528
0.1659992886440629
0.1851800818298235
0.2008730217882725
0.2120745900728966
0.2183498660059421
0.2198359572899991
0.2168866003380936
0.2108579663639745
0.2025625717054935
0.1936349508972076
0.1842807217694553
0.1742942041309168
0.1643819714070913
0.1541190719985687
0.143708596309153
0.1332043060714557
0.1144417011261003
0.1281847799653235
0.1535638394304651
0.1778102434185945
0.1959269314379229
0.2093695807686144
0.2168291844272195
0.2192939659697965
0.2178093153505192
0.2120832281160663
0.2029631817332647
0.1926918567260592
0.1820363283945849
0.1712217299500441
0.1607670029811246
0.1505815319149541
0.1404425539089578
0.1303438609315614
0.1206027996647317
0.1211935942687179
0.1377713005557995
0.1639089351650588
0.1868221028445287
0.2032096073391472
0.2138745493236985
0.2181837032825016
0.217737014416719
0.2131496585260276
0.204885904420377
0.1936814487763639
0.1822027944677291
0.1706755479914868
0.1593494761721176
0.1489849138599415
0.1389740470227082
0.1294018091800511
0.1202610554787109
0.1118959831101856
0.1283122832274117
0.1462266566018178
0.1730931254391864
0.1939240567278686
0.2077985432139859
0.2155084309396436
0.2171413425268499
0.2139031013126236
0.2066570920753015
0.1968083326766266
0.1847285361553787
0.1722188830573643
0.1604874649302712
0.1497322279374605
0.1395714952669529
0.1299904355275035
0.1215465982883164
0.1138331073920956
0.1068879253307586
0.1349327078905923
0.1538848761334297
0.1802270145221566
0.1987529142947797
0.2100839447196794
0.2150088808448975
0.2139337322984084
0.208319893636112
0.199720550627472
0.1885791599864446
0.175982608405864
0.163434344809854
0.1518865541641027
0.1417309121922597
0.1321506912894611
0.1236148734973905
0.1165690816013496
0.1103968801695015
0.1050161540434322
0.1412272972754432
0.1599553981299131
0.1845992337776499
0.2009457434563758
0.210008289774021
0.2128482338946298
0.2099256204023385
0.2025865514107806
0.1929185993201451
0.1810677245712925
0.1684135247065078
0.1560945439972063
0.1448824170269008
0.1352315546081044
0.1267851626326742
0.1196132073363952
0.1140054100982682
0.109413603605933
0.1061785402184058
0.1466870860290782
0.1645136156854114
0.1877071787657432
0.201437693417194
0.2084764765959684
0.2096831289505877
0.2049880205470076
0.1970882049890193
0.1867960622370501
0.1745264775212844
0.1621818146306056
0.1499880223320373
0.1392625821103605
0.130409399056466
0.1233562684662271
0.1177447909540199
0.1134945763842355
0.1108318171100606
0.1108026046562173
0.1503124335446636
0.1672835886919824
0.1894721592490865
0.2006753216143775
0.2062509664573056
0.2059262190388759
0.1999263452761171
0.1914554670580571
0.1806947458785988
0.1688533075443765
0.1566765405942206
0.1448022802559812
0.1349976786166021
0.1273054853385165
0.1214323379701767
0.1173869632166799
0.1148688180689534
0.1149457540697113
0.1178349833589789
0.1523549895362329
0.168546010960099
0.1898696435828764
0.1992945738620803
0.2032302123909179
0.2017382153937149
0.1955480158097924
0.1860576579812541
0.1744951146563602
0.1635538052826676
0.1517825129765345
0.1406767582583471
0.1319129856011995
0.1255711132419359
0.1209909850324102
0.1184690590532192
0.1185146680425658
0.1219186756008266
0.1253385863523498
0.1537894708055873
0.1690607367195392
0.1887069783336355
0.1970795265501978
0.1997104576208933
0.197071387849144
0.1907022759011503
0.1808592710050905
0.1695232729390903
0.1589035559112168
0.1475960603477597
0.1376050663257339
0.1299972725115663
0.1249268440178327
0.1217326843234433
0.1211578420703165
0.1243435233008764
0.1304524668162704
0.1306102857755402
0.1547696845949333
0.1690449058727682
0.1866799053617845
0.1943322443276929
0.1961194934325068
0.1925444758970559
0.1857409592291823
0.1758591710977408
0.1653388655831869
0.1547765071405303
0.1440385439901343
0.1354547169099882
0.1292575985846052
0.1252848484603473
0.1236350112967706
0.1254967433308296
0.1321131061657645
0.1387065724999874
0.1330554951763838
0.1546365884188583
0.1679934691815083
0.1844866707479499
0.1912877756815338
0.1923729715494886
0.1881412097822483
0.1810526099839061
0.171821913465448
0.1618084328915705
0.1513237262801219
0.1412826169711191
0.1337058827307382
0.1290039840144316
0.1265429971163877
0.1271190887252617
0.1317964648982449
0.1411193281389944
0.1468798402725332
0.1312627619424059
0.1537541611435987
0.1662714394610416
0.1825876797348049
0.1883739781710772
0.188575476214131
0.1843974304097536
0.177122814682491
0.1684364176759702
0.1585672566404881
0.1485181456033164
0.139523533175389
0.1327688001186789
0.1292094336351055
0.1286259344197435
0.1314318863837074
0.1395297088145342
0.1515767111433173
0.155564379332161
0.1214775275148169
0.1531183477896453
0.1643473563930619
0.1800622493882977
0.1852228085654544
0.1847280771681775
0.1807359960810381
0.1737255710419829
0.1648374022171972
0.1552869653855086
0.1460354831339385
0.138136121872012
0.1327247909732801
0.1303703544685185
0.1314637450994292
0.1370642229527719
0.1492100198805592
0.1617067324009766
0.1553498011939636
0.1094872523377469
0.1524686655734553
0.1623190076815989
0.1770026832176301
0.1819364726829156
0.1813445946159805
0.1770442089639324
0.1702154505885748
0.161593874427326
0.1525836187788912
0.144254491991042
0.1372876953431395
0.1331690438497506
0.1321763673556396
0.1349885733194032
0.1439261971249455
0.1592668196599475
0.1701366057099557
0.150606123750835
0.1004710416221534
0.1516941013285978
0.1604571133701739
0.1745559904764826
0.1791148248594081
0.1782961701554771
0.1739168352078358
0.1672125801410424
0.1589382280413576
0.1506715248244689
0.1432052980734691
0.1371318156163008
0.1340022115322377
0.1344071768484996
0.1397176337423248
0.1517629951606575
0.167914673098304
0.1761554431711532
0.1492297423385335
0.0923279576227562
0.1509542951852388
0.1589317728865426
0.1724682987333857
0.1763840728115592
0.1752588120067993
0.1709309032988499
0.1646309435553635
0.1567327600091721
0.1491266465292391
0.142337258788454
0.1372465095839791
0.1351796606050066
0.1368779212747002
0.1445790757283472
0.1593151923089231
0.1758713606139685
0.1761550408802025
0.141655924665788
0.0843727919657851
0.1507571061034701
0.1576372292595996
0.1700345185781669
0.1734113526121701
0.1725333509702465
0.1682973187821302
0.1621895176565056
0.1549785491685021
0.1479513614249913
0.1415541558062397
0.1374422879156681
0.1368218191197489
0.1400331144684446
0.1494397507077413
0.16576278527129
0.1833884115595392
0.1773119741971897
0.1342034181667388
0.077661494345711
0.1509465821958867
0.1562691972932062
0.1673529851120677
0.1705458415819976
0.1697305358289536
0.16588980188329
0.15994056128804
0.1534162200068776
0.1470061936730797
0.1408501110479573
0.1377463270241915
0.1383615781174031
0.1433993203790522
0.1550239839464418
0.1734119539963775
0.1920838089028402
0.1820126740886539
0.1316161792732924
0.074207787117072
0.1509919364957086
0.155242051045818
0.1654005414173258
0.1683688519119618
0.1671151612800021
0.1638101773460728
0.1582469348984639
0.1520212942906003
0.1456521034742312
0.1399545935090137
0.1378972901640269
0.1395978210477258
0.1466261468537376
0.1601495021041362
0.1803405625687602
0.1970421310300131
0.1821718207508117
0.1289212169420442
0.0724858336018176
0.1508623126833605
0.1545582399157975
0.1638762108872217
0.1665101120259911
0.1651308822877472
0.1618951590847144
0.1566595881973772
0.1506720391548883
0.1443748679727972
0.1393393850995672
0.1383103189477094
0.1414225818004542
0.1502429956502083
0.164775776039092
0.1862631799494393
0.1974078650048056
0.1755519483543367
0.1232044556787174
0.0701694582214373
0.1508498435507599
0.1540137397749545
0.162083309299417
0.1642567231253543
0.1630564060096032
0.1597313985928306
0.1548798645266918
0.1492600384906893
0.1436279808583807
0.1393064018295603
0.139047468752194
0.1432473575053723
0.1529783782075027
0.1694039075654578
0.1931505316933001
0.1985814033972521
0.1696966879136162
0.117604106416406
0.0679418934598261
0.1512708503151328
0.1534835358075763
0.1604992784764408
0.1622767644681948
0.1612927483669461
0.157936418728449
0.1532905337803136
0.1480685451113601
0.1431467836805741
0.1395790098613354
0.1399533392591083
0.1448654960029114
0.1553531147485634
0.1742808854997584
0.1998642908548103
0.2019262811135013
0.1691076166936415
0.1147479298045953
0.0662349790380115
0.1523508703269729
0.1532316822689445
0.1596382590797825
0.1608003295315247
0.1596279197940269
0.1565905488084873
0.1520913463487168
0.1471774634987725
0.1428220375860674
0.13998351967387
0.1409563793173316
0.1467526438006156
0.1584563034239092
0.1789669314373681
0.2051399906782939
0.2060826900061291
0.1699380368862692
0.1125546406671074
0.0653095274381401
0.1537475092488317
0.1532468386998334
0.1587723379093274
0.1594822589186232
0.1580957987864291
0.1555594147637534
0.1513085038644724
0.1463784734201548
0.1424089700053974
0.1404178163198226
0.1417117684829309
0.1484071589522413
0.1612177966487703
0.1829867786568144
0.2090847152208376
0.2088153930785895
0.1713706298943274
0.1113470040799481
0.0643003849495786
0.1550894750584797
0.153310382263422
0.1577342890350561
0.1583896719878145
0.1569327236372889
0.1542698235029254
0.1504923843920412
0.1458241030916658
0.1420719553759615
0.1409920211350237
0.1427353692853886
0.1500991514567505
0.163324736435132
0.186414328368446
0.2128360935519201
0.2114325032486404
0.1732826694103187
0.1110908615202909
0.0634165478314985
0.1562047140576973
0.1533251127484573
0.1568426666806077
0.1575316441200266
0.1556763709138229
0.1527471168493632
0.1496428389113717
0.1453314011386748
0.1419367694917636
0.1414232391723908
0.1438730541058193
0.1517291585941992
0.1651136525191786
0.1898296134797111
0.2173312107851257
0.2141238466883003
0.1736762526849943
0.1109885947052845
0.0632588660271913
0.1573278526504636
0.1534735571331227
0.1560465459330633
0.1568675767101063
0.1546431558208056
0.1515731836788853
0.148702846262375
0.1446492252260761
0.1416504658798618
0.1416602872183264
0.1448119691470541
0.1533266892638388
0.1675014898580407
0.1930580862047772
0.220625953560046
0.2164730923686278
0.1746055520908853
0.1113838762013673
0.0635009908307093