/*--------------------------------*- C++ -*----------------------------------*\
| =========                 |                                                 |
| \\      /  F ield         | OpenFOAM: The Open Source CFD Toolbox           |
|  \\    /   O peration     | Version:  2112                                  |
|   \\  /    A nd           | Website:  www.openfoam.com                      |
|    \\/     M anipulation  |                                                 |
\*---------------------------------------------------------------------------*/
FoamFile
{
    version     2.0;
    format      ascii;
    arch        "LSB;label=32;scalar=64";
    class       volSymmTensorField;
    location    "0.0054";
    object      tauij_LES;
}
// * * * * * * * * * * * * * * * * * * * * * * * * * * * * * * * * * * * * * // 
 
dimensions      [0 2 -2 0 0 0 0];
 
internalField   nonuniform List<symmTensor> 
13597
(
( 0.1445577702801429 -0.0273424005280364 -0.0038447451954668 0.0685538720696403 0.0324696692652511 0.0791953390155454 )
( 0.1415161250308281 -0.0260377379066295 -0.0035151840618326 0.0718675628931467 0.032015753542753 0.0785294366634423 )
( 0.1337634878112961 -0.0239133464547783 -0.0041419154677804 0.0779238471720143 0.0310373638339511 0.0771104909740285 )
( 0.1247499087706205 -0.0207284464171472 -0.0057820905845855 0.0858157868842374 0.02923080204678 0.0763817133302215 )
( 0.1187197156562624 -0.0173311258116277 -0.0069323229205865 0.0911751853926031 0.0272651447942419 0.0763036743735897 )
( 0.1136788600082469 -0.0138445592901566 -0.0067790397307213 0.0925464372483124 0.0251833412676803 0.0760649299684206 )
( 0.1087071068636758 -0.0105993097622645 -0.0068019067301754 0.0918872726411713 0.0227989503363721 0.0767128164440113 )
( 0.1041582548709178 -0.0076398821713749 -0.0060985265151122 0.0898511113186974 0.0196812517591125 0.0791979172199261 )
( 0.099691558892361 -0.0055309063632159 -0.0050796561657209 0.0860490115967376 0.0161993118784008 0.0828785710289649 )
( 0.0951647403801992 -0.0035618471554791 -0.0042790369840586 0.0812527179407778 0.0120372091807263 0.0877688216912376 )
( 0.0904666497367356 -0.0014108933082638 -0.0031350298893509 0.0754644580637856 0.0066545499285214 0.0943480586356262 )
( 0.0864063028238964 -6.322828569157902e-05 -0.0027317545568368 0.0693055029592281 0.0007054557717759 0.1010482016920925 )
( 0.082969222613502 0.0007568909396792 -0.0025049464674548 0.0634685212300599 -0.0058195813180998 0.1069155513653584 )
( 0.0795127129611643 0.0015483819491849 -0.0025415625547976 0.0577665916974986 -0.0123956001998006 0.1124919677018254 )
( 0.076250135814442 0.0025341457263546 -0.0036517203733332 0.0524740596961894 -0.0185366126424977 0.1169892911316847 )
( 0.0733015275568784 0.0034655140923735 -0.005057145075695 0.0484530320527954 -0.0245490920494137 0.1204452607384159 )
( 0.0707621033249614 0.0045808671454087 -0.0063519043876712 0.0461210539502902 -0.0301716702382475 0.1233846519664201 )
( 0.0684065144362968 0.0060898434627196 -0.0085757467514137 0.0440066444296131 -0.0348863511719781 0.1237618239857261 )
( 0.0665889426591034 0.0072314572630387 -0.0115712566915636 0.0418582902303182 -0.0383256360474987 0.1224037460488935 )
( 0.1436686764257051 -0.0144803207346273 0.0089568247701122 0.0773764748660342 0.0252408611070228 0.0772591330665244 )
( 0.13751544472618 -0.0120572829649499 0.0108006973815147 0.0826551983141102 0.0242853052237929 0.0781996731192952 )
( 0.1251545172305398 -0.0101192551592148 0.0110427655403792 0.0915263863938364 0.0239945958230074 0.0786812401169029 )
( 0.1143093554352712 -0.0083549827721416 0.0105615318186899 0.1006297155414132 0.0241001338586862 0.0819630616049065 )
( 0.1068320202989525 -0.0071449786771944 0.0104045544228629 0.1036111348072273 0.0239331409387073 0.0867373371997585 )
( 0.0998084846310595 -0.0066906003495155 0.0108842628415256 0.1032166016644642 0.0232494714412956 0.093160778814629 )
( 0.0941725076972564 -0.0067690603790035 0.0107711704859787 0.09996355359012 0.0214406605360772 0.1009997007832662 )
( 0.089144121155477 -0.0072792309035434 0.0104548377909132 0.0950273974723624 0.0182356747255113 0.1111894792663715 )
( 0.0848656440630019 -0.0085729643382912 0.0100540625619352 0.0889399729069919 0.0133982779398383 0.1220685897053644 )
( 0.081122025145927 -0.0093895257874768 0.0085114958138836 0.0819407184863365 0.0071735141140585 0.1328691128238214 )
( 0.077928812748919 -0.0098560529374345 0.0055072401766586 0.0741687831534285 -0.00069481973242 0.1439465633323585 )
( 0.0760414767112812 -0.0105679856346224 0.0011872188765869 0.0674222822066767 -0.0101031410495374 0.1539546793527749 )
( 0.0749551820162508 -0.0101437270551738 -0.0039619939924506 0.0617042755678985 -0.0198645075850608 0.1604830783886855 )
( 0.0742857052085247 -0.0087497531534701 -0.0099774785824918 0.0567466906987369 -0.029011035798252 0.1637989958880377 )
( 0.0746717645612364 -0.0068406815845741 -0.0159897437105689 0.0531495282141703 -0.0367730758676141 0.1651005622345529 )
( 0.0750732060860831 -0.0043581661909542 -0.0220698474915574 0.0508507309835607 -0.0431592198385895 0.164528894390014 )
( 0.0751670411937821 -0.0017796258658044 -0.0274557059661138 0.049980266845509 -0.0480945841336032 0.1626336278205122 )
( 0.075613511876384 0.0010854463443163 -0.0322577325066508 0.0492282055964584 -0.0515926180574947 0.1586725065855881 )
( 0.0763047623243155 0.0039249945230114 -0.0365015617248374 0.0482001270614993 -0.0534330558232137 0.1539935093953033 )
( 0.1310460904109142 -0.003816266697801 0.0179244521876396 0.086570496601424 0.0201742536864724 0.0856196767683731 )
( 0.1207941638846162 -0.0018182559245508 0.0196320782426524 0.0933864333409353 0.0198358646479098 0.089045390865909 )
( 0.1064140743174927 -0.0023657667296003 0.0188094490859751 0.1019792881291009 0.0213906335780244 0.0919273985007392 )
( 0.0945506555244567 -0.0043607561270587 0.0165079752338975 0.1083120434291987 0.0240588970047513 0.0993782786969693 )
( 0.0864509825634061 -0.0063011508262429 0.014428283119361 0.1074489245031746 0.0250658653030364 0.1091204434412971 )
( 0.0802068716594014 -0.0086045584491523 0.0125244915910102 0.1032610529888495 0.0242356814149733 0.1202201136485241 )
( 0.0758010032678875 -0.0111580323023083 0.0093947939557367 0.0969236706617824 0.0210958224402679 0.1327231951129436 )
( 0.0726104309909076 -0.0136196121576332 0.0050345963334456 0.0899111110679706 0.0157425186443212 0.1465141973174249 )
( 0.0706801304337965 -0.0151822701919723 -9.497684548066396e-05 0.0824226785189509 0.0081121775259763 0.1593388698141825 )
( 0.069931179427521 -0.0155579030762284 -0.0061214851924307 0.0754163038155453 -0.002191065547216 0.1717064909912641 )
( 0.0699558722700269 -0.0150834412963882 -0.0135027915050306 0.0694467321252914 -0.0137568367470748 0.1808602840036789 )
( 0.0711993936492272 -0.0135129635738292 -0.0215592487725924 0.0650714281769373 -0.0257245380116919 0.1866410393011464 )
( 0.0727038422622593 -0.0104597658927988 -0.0296677052914418 0.0618509866330416 -0.0366086595894784 0.1884456261378146 )
( 0.0734092427912383 -0.0067004176764353 -0.0369210857172625 0.059637568011022 -0.0447245378674398 0.186549281385465 )
( 0.0739454649845567 -0.003167055369517 -0.0421267059645966 0.0588639109798417 -0.0502665018860775 0.18335110556447 )
( 0.0742193574981336 9.100936020693772e-05 -0.0461207157286446 0.0581878090983675 -0.0533012165925591 0.1791877359540278 )
( 0.0739578658258989 0.0029615615545243 -0.0487476552765342 0.0575792619774251 -0.0543222172457391 0.1748023098298917 )
( 0.0731799468737242 0.0055009692729095 -0.0496979612284199 0.0568832201118207 -0.0537555945836305 0.1698799700127187 )
( 0.0719580577405831 0.0078430584193205 -0.0493443602429137 0.0558094889107342 -0.0518948019549917 0.1652446653416391 )
( 0.1111878289830229 0.0030972514603683 0.0221410546256663 0.0945619995863165 0.0166542670530686 0.0973132651082211 )
( 0.0994545556565811 0.0028156878881982 0.0212227330153689 0.1014167043211513 0.0175429424228113 0.1015033576136129 )
( 0.0868354453258229 -0.0012599227775614 0.0171600717843785 0.1073960885688574 0.0214144048007981 0.1056308921964289 )
( 0.0770484599595304 -0.0064165890727427 0.0115095073004307 0.1097131051228481 0.0256131774140934 0.1159377827515079 )
( 0.0713331821799683 -0.0105384153383069 0.0056744346095392 0.1056194923788734 0.026116954188783 0.1284154405146399 )
( 0.0681853575340156 -0.0143483141562114 -0.0003144801073601 0.0989504838256341 0.023535467031444 0.1410965999322662 )
( 0.0665494557116643 -0.017333616115982 -0.007258852549003 0.0913893122909401 0.0171830313927188 0.1544738674747909 )
( 0.0664478952618489 -0.0191622433736934 -0.0146622550712475 0.0845052433906922 0.0077660238496748 0.1684810011044841 )
( 0.0669455467479151 -0.0190901532137101 -0.0220127783782417 0.0780785634320737 -0.0032142861465732 0.1800201735858189 )
( 0.0680693738663535 -0.0175465088706573 -0.0298318428102656 0.073307720626579 -0.015721390029868 0.1891981427996149 )
( 0.0690997362430096 -0.0150124295672842 -0.0375496716141613 0.069795672925211 -0.0280296116634205 0.1933834862572378 )
( 0.070228004569197 -0.0112718727427119 -0.0432866662648033 0.0670701202059441 -0.0383696705090096 0.1932114678710686 )
( 0.0708999175703187 -0.0067002867312213 -0.0465302363698109 0.0657448569834528 -0.0458944321457108 0.1906600328357671 )
( 0.0710704830205385 -0.0022151324961937 -0.047505755952141 0.0647664548839898 -0.0495834726309066 0.1869577963770653 )
( 0.0714333453740054 0.0015000101512266 -0.046330415867317 0.0641067915068544 -0.0503229025736061 0.1834589140141484 )
( 0.0717925833170027 0.0047589400721599 -0.0433727186812138 0.0636340990434701 -0.0490430304142039 0.1803008274335413 )
( 0.072236684156594 0.0074717268694547 -0.0392502319862617 0.0628145621287514 -0.04615619215966 0.1773878204877952 )
( 0.0727989290130553 0.0100743688433506 -0.033665730999457 0.0617453599271469 -0.0419527102879961 0.1752762748394502 )
( 0.0731357974605816 0.0128940661728279 -0.0262884214276028 0.0604752018174627 -0.0364893204535043 0.1736637224762247 )
( 0.0928688197835986 0.0048772975085437 0.0214119335764763 0.1017487978557396 0.0143479380492208 0.1082253734035115 )
( 0.0823914646721842 0.0017142761929383 0.0169704734833151 0.1067208987458129 0.0165657371840103 0.1110648848480739 )
( 0.0737182173889022 -0.0051170448414149 0.0089732320609961 0.109092271182522 0.0218019560535417 0.1157370560546271 )
( 0.0691874607492671 -0.0124244960043437 0.000193323170991 0.1075684657774876 0.0252074215026 0.1279394383306191 )
( 0.0675940809380357 -0.0176222867168885 -0.0081037015649455 0.1013940842174118 0.0232622716801233 0.1407695246306644 )
( 0.0677866574063885 -0.021142691074566 -0.0160927828740283 0.0942714913714535 0.0175577253711956 0.1541004042688791 )
( 0.0691493339513684 -0.0233134452025659 -0.0245705134234992 0.0873206131189174 0.007696416393831 0.1670002806744528 )
( 0.0706364284169384 -0.0234404620927692 -0.0321589763019198 0.0814620688600921 -0.0044894640858973 0.1786498710241788 )
( 0.0721659578550846 -0.0214797117066481 -0.0378719926870279 0.0768211268619638 -0.0165348252676332 0.1874248117907003 )
( 0.0741473749175911 -0.0183009895935215 -0.0423215115785021 0.0735603444652812 -0.0281453134869397 0.1920143986462251 )
( 0.076099267732336 -0.0137072760197785 -0.0441346013991296 0.0714236157226899 -0.0381387391223838 0.1936779010188416 )
( 0.0778569823876715 -0.0081831496884593 -0.042465305099224 0.0702379982093409 -0.0445623511525426 0.1932357208706809 )
( 0.0797408279210648 -0.0025224445471372 -0.0376946192364754 0.0695306517501348 -0.0467262635685227 0.1915422467555108 )
( 0.0820113810168718 0.0028652765883195 -0.0303386848722391 0.0689662402063423 -0.0451309486339303 0.1897573929446325 )
( 0.0846300754595232 0.0074470621826253 -0.0218201990320303 0.0684561658597063 -0.0413749711651147 0.1883276673052455 )
( 0.0870982066388762 0.0115891027775541 -0.0123787808189925 0.0679931918274701 -0.0363653827504456 0.1872329510497351 )
( 0.0893489843226565 0.0151768613471217 -0.0027140783457154 0.067337591713032 -0.0304432264741823 0.1864762818632173 )
( 0.0917748213822657 0.0185888973251351 0.0074141560916575 0.0664984023089373 -0.0237168232388175 0.1865373960071097 )
( 0.0938859455029178 0.022111640613768 0.0187598313415079 0.0654701150654552 -0.0157935872927843 0.1869570909080436 )
( 0.0808089829416735 0.0028643110169937 0.017330371579763 0.1066167673450727 0.0121804583008686 0.1164975314726303 )
( 0.0739614755913336 -0.0032390398545918 0.0101719628542991 0.1091802698281316 0.0149817558161068 0.1177419100856167 )
( 0.0696628981018321 -0.0119850360258608 -0.0007674071882791 0.1077293256969385 0.0203458678552366 0.1225042087470024 )
( 0.0697009166055281 -0.0198383925115858 -0.0112189378707082 0.103427166921738 0.0215258694262948 0.1357153849469246 )
( 0.0714148134750772 -0.0247899174968005 -0.0196668310732457 0.0964409050460877 0.0164863113780198 0.1482801122499086 )
( 0.0738530452786742 -0.0270454670025544 -0.0272346158214315 0.089518697996898 0.0078367662957177 0.1611069893505034 )
( 0.0767946722804605 -0.0273530526022156 -0.0340880859992876 0.0838585530041145 -0.0038917824294088 0.1733445059400637 )
( 0.0793825627380167 -0.0254115381821094 -0.0385235278025039 0.0790959122235269 -0.0166571761591419 0.1827788601098076 )
( 0.0823954221386026 -0.0214652295265722 -0.0400121520315275 0.0755401459793362 -0.0278481813535746 0.1901103293587514 )
( 0.0859332863825648 -0.0162989331633783 -0.0381280838736628 0.073609093479351 -0.0371941955951396 0.194725040813238 )
( 0.0895494641894306 -0.0099925327019901 -0.0322431074273808 0.0732021192511309 -0.0432076155641965 0.196766726171607 )
( 0.0935290903692803 -0.0029113671085384 -0.0230204332354569 0.0731122952749542 -0.044255566880256 0.1972868601865415 )
( 0.0973451566908342 0.0041713481195107 -0.0116179914307223 0.0728234370588843 -0.0411921839245664 0.1969723597493754 )
( 0.1004509777416871 0.0103495256622919 0.0007264862825921 0.072663931160461 -0.0354254466799847 0.1952856111034927 )
( 0.1037709353091689 0.0156758789896582 0.0127042793819691 0.0726348421959947 -0.0285977219704775 0.1941552115477257 )
( 0.1064799742920858 0.0202312268632923 0.02356711261256 0.0723510371700755 -0.0213908751078274 0.1933207902039047 )
( 0.1086316157846524 0.0240767716568812 0.0339522747364495 0.0718702850740737 -0.0139185507067616 0.1925775110696424 )
( 0.1100418896726426 0.0273084689684571 0.0438682519416799 0.071083179190678 -0.0062595011909298 0.1916814167081691 )
( 0.1108044374587816 0.0302372750935262 0.0534207058714081 0.0698429014232241 0.0020602126709564 0.1909370282184235 )
( 0.0752573807662092 -0.0021674410971758 0.0123438255585954 0.1095552787705105 0.0096748302844583 0.1228430624391935 )
( 0.0728876278917185 -0.0103703505868194 0.0033664241195489 0.1091987196557165 0.012661443127733 0.1231599605648988 )
( 0.072779965600566 -0.0200382128206159 -0.0086412369646263 0.1048262599306255 0.0172439879871356 0.1283866601426127 )
( 0.0753617176821198 -0.0269688895565873 -0.0190385933379464 0.0987906206767685 0.0159644016227636 0.1409505564678879 )
( 0.0789545449664008 -0.0302769902291084 -0.0264760993975678 0.0916496672632984 0.008582596262892 0.1534733372550165 )
( 0.0825161245031124 -0.0306897608822539 -0.032146008217682 0.0850650529922093 -0.0019248289035396 0.1664380391702898 )
( 0.0857497055575718 -0.0285732732415965 -0.0350871817205779 0.08003675911691 -0.0145355575817124 0.1783391960463467 )
( 0.0895678372950382 -0.0244804713869152 -0.0348227993328894 0.0768024019315658 -0.0267361523931312 0.1871703821342205 )
( 0.0941712973013058 -0.0183660788816411 -0.0312488567858281 0.0750067830271652 -0.0359590324506546 0.1940833507908338 )
( 0.098748623898248 -0.0111471262609792 -0.0240664334789895 0.0744795124558895 -0.0415598692287404 0.1986729640585452 )
( 0.1030608448961638 -0.0036254192337188 -0.0130581386860309 0.0747575154531617 -0.0427381245099184 0.2002843861393858 )
( 0.1075132031351678 0.004534952232144 0.0006165809040624 0.0753078649328892 -0.0390624213133042 0.2006196134417303 )
( 0.111458794576168 0.0120304330906187 0.014532123105241 0.0759164092872965 -0.0323644872471807 0.1996071559160213 )
( 0.1138216201684321 0.0182585183497909 0.0277305404537598 0.076276784148157 -0.0242061697508768 0.1967817928250395 )
( 0.1154807686249298 0.0234010050660032 0.0392874185322826 0.0763589916734982 -0.0157321829891595 0.1940187841610471 )
( 0.1166938202966253 0.0273241569090702 0.0484417547818864 0.0761724718156766 -0.0079695674490542 0.1914526174076944 )
( 0.1168904140236269 0.0306453588763185 0.056279703022597 0.075638804465581 -0.0005226690560358 0.1883269555975429 )
( 0.1162008138347625 0.0332862502819512 0.0630703198067327 0.0744985825366801 0.0068563117971262 0.1847757082838596 )
( 0.1147712624060928 0.0353366411511518 0.0686097733455624 0.0727136705632785 0.0141343306170932 0.1811383562906423 )
( 0.0750102305709637 -0.0089647890966905 0.0073131004288765 0.1111694032899086 0.0076231271708124 0.1283815665133744 )
( 0.0757480832367187 -0.0175227974264791 -0.0022852586631359 0.1075429459502128 0.0110718940307517 0.1280780574059107 )
( 0.0784579338573019 -0.0264107168720419 -0.0142803645019158 0.1006843377482655 0.014182557061435 0.1338929783631758 )
( 0.0827321861859767 -0.0318559504845317 -0.0236745053420225 0.0936318179029931 0.010599130545922 0.1463506668782611 )
( 0.0870103440382995 -0.0331642055875647 -0.0290445806338628 0.0865832393709567 0.0012415769092233 0.1592255736173703 )
( 0.0910752064676573 -0.0310862098887532 -0.0314705564036888 0.0806685678240799 -0.0110661878653613 0.172381854145942 )
( 0.0950903831263702 -0.0265788431277607 -0.0308699120777114 0.0769819221855857 -0.0232430771567699 0.1846286453525881 )
( 0.0993111564399911 -0.020663626379733 -0.0268061549828083 0.075235840817112 -0.0331228700528585 0.1935284089644481 )
( 0.1039836353679075 -0.0130508847004901 -0.0185842630462331 0.0747642684980326 -0.0396798492544493 0.1991623531178463 )
( 0.1081040913276609 -0.0042051340739429 -0.0079845930678098 0.0755623311825277 -0.0414767876703892 0.2020483014282693 )
( 0.1118979970898584 0.0042081580597913 0.0054363368701539 0.0766215409455045 -0.0386350125238219 0.2017005741274055 )
( 0.1154043740086507 0.0124434450156632 0.0206758471351427 0.0779350192383805 -0.0319163399935291 0.1999602228178039 )
( 0.1173559937337435 0.0195654289375024 0.0340335971948767 0.078942647303979 -0.0229258573702945 0.1961459479366945 )
( 0.1180331676555991 0.0251004725232738 0.0449214832528554 0.0794285367049438 -0.0138072241696364 0.1909750355728985 )
( 0.1179442621031569 0.0293739061095445 0.0534628900457623 0.079552067059216 -0.0055002194640508 0.1860360175344355 )
( 0.1172397850526961 0.0326082219991179 0.0599924981430242 0.0791641494186032 0.0018665870870822 0.180951484487965 )
( 0.1156261353999704 0.0352622832046873 0.0646498432984096 0.0782375050879927 0.0086185093549712 0.1752949667630834 )
( 0.1133247239243183 0.0372895709060765 0.0677755411710659 0.0765749451335957 0.0150145541579518 0.1694515695171583 )
( 0.1105598559272961 0.0387354391801459 0.0697312711892207 0.0741913168970483 0.0209417407032264 0.1638920979116421 )
( 0.0773890978863538 -0.0155869666719745 0.0026998100579773 0.1109827962405961 0.0070412834350136 0.133409114067304 )
( 0.0799418790954692 -0.0236431002940391 -0.0067331738153627 0.1045471307821226 0.0105699775631821 0.1331745587328416 )
( 0.0840539903196463 -0.0308491500064952 -0.0179449190346309 0.0958766937597578 0.0116666802815925 0.1399375111972896 )
( 0.0886621075628538 -0.0339188073406801 -0.0253432357041885 0.0882954158528201 0.005877080418319 0.1527577023488618 )
( 0.093024708173997 -0.032762224375471 -0.0281690913900828 0.0814000742291068 -0.0052673322342419 0.1659710058463946 )
( 0.0974714615831045 -0.0286348078980237 -0.0276279176891272 0.0768456669733307 -0.0181824400318331 0.1798871829678779 )
( 0.1016881319926932 -0.0225592858482413 -0.024072382956809 0.0748407332713621 -0.0291021772932437 0.1914908214338238 )
( 0.1054668178431491 -0.014891336602461 -0.0171420228960904 0.0743556299661684 -0.0367827829759682 0.1990237477227277 )
( 0.1092742735818678 -0.006386653363446 -0.0065816399902983 0.0748678589289816 -0.040352728938942 0.203212270902338 )
( 0.1126210236166659 0.002996671420711 0.0058418960390538 0.0767432973446106 -0.0388431940785454 0.2032729366029343 )
( 0.1153633733467193 0.0117691946838807 0.0199171713964212 0.0791514728315779 -0.0332206656352231 0.1995595622899357 )
( 0.117092061096956 0.0194246372494582 0.0340522885937345 0.0810726553493181 -0.0249132824680534 0.1942950469040488 )
( 0.1168983349186207 0.025875632594277 0.0455324863109985 0.0821796987533721 -0.0149848451100397 0.1869846067089431 )
( 0.1156825973219295 0.030645691553766 0.0532656866240598 0.082499551296082 -0.0058378889010466 0.1793796144769642 )
( 0.1143870091147661 0.0341220727561366 0.0584453045161943 0.0823112550445643 0.0016578634213636 0.1725560207259499 )
( 0.1123190170714685 0.0367664390183536 0.0622184482339644 0.0815373584710233 0.0082890334414396 0.1657079175003903 )
( 0.109294781901115 0.0388068617085947 0.063857131937638 0.0800565415807317 0.0140246078928815 0.1587170604487545 )
( 0.1063303439236363 0.0404939935606023 0.0644425190124142 0.0780222719546114 0.0193238387159215 0.1524361228992111 )
( 0.1032535536925527 0.0418201212597772 0.0640324424289013 0.075252637703801 0.0241491714426421 0.147014982434025 )
( 0.0804959334083994 -0.0211068137594929 -0.0011675659438351 0.1093365625422199 0.0081721170613825 0.139008157666951 )
( 0.0836412946376609 -0.0282725733631859 -0.0107498336036285 0.1007759466238677 0.0116092228002926 0.1393077188872233 )
( 0.0880406022770107 -0.0333511198738112 -0.0204591611362085 0.0908114895795196 0.0101812105153311 0.1468214379488445 )
( 0.0930382446611356 -0.03380158215479 -0.0250569848546184 0.0830848901450244 0.0015850104821452 0.1599165669685192 )
( 0.0974241307699477 -0.0302787030025004 -0.025506688289355 0.0771540669599476 -0.0107740008525128 0.1740693085680708 )
( 0.1009231973141384 -0.0244498268814939 -0.0227497703952179 0.0739277900416705 -0.0229418094075399 0.1874007749490779 )
( 0.1045953438082873 -0.0172531391957896 -0.016504019071854 0.0730929627976107 -0.0326999018015114 0.1970464754942814 )
( 0.1084799184081578 -0.0086698498358682 -0.007426305873188 0.0740533411630044 -0.0384617605019145 0.2028021399620103 )
( 0.1110573600019246 0.0002576014285669 0.0035066866223615 0.0759283384249611 -0.039475284145905 0.2040239630976986 )
( 0.113285024786854 0.009441449737167 0.0164682465027002 0.0789135682679295 -0.0357092755484128 0.2006438635389762 )
( 0.1146726061181273 0.0181300006759646 0.0295701991285245 0.0820744565434075 -0.028027075712967 0.1935634532591099 )
( 0.1141069905056203 0.0251564984051804 0.0409788789548936 0.0840253696806198 -0.018592583258938 0.1844428691538654 )
( 0.1124807040234706 0.0307596943668103 0.0497320034158913 0.0850419261659502 -0.0088956956726942 0.1749654744387468 )
( 0.1102224855526467 0.0348955448994608 0.0550105833668852 0.0851401616238779 -0.0004125731411417 0.1662203231766977 )
( 0.10773339637809 0.037742765674504 0.0580056233205311 0.0845541064509204 0.0062817483260073 0.1581066556741885 )
( 0.1048373679587967 0.0399576675200221 0.0594302876557569 0.0834685384593519 0.011881012085836 0.1507853087634979 )
( 0.1016346973943303 0.042038428795117 0.0591387996783064 0.0818521899351315 0.0167537892005275 0.1440325104422636 )
( 0.0990187696628586 0.0439677226853074 0.058041366350936 0.0797176565119917 0.0211341791837547 0.138192244692518 )
( 0.0969243290561691 0.0457433602094914 0.0564630836050138 0.0768353184799274 0.0250118601608172 0.1336362156838136 )
( 0.0825679785966636 -0.0252951100194778 -0.0048051719446857 0.1071707842900892 0.010634166381624 0.1450458807841129 )
( 0.0856022192846731 -0.0306361457205065 -0.0138529693754154 0.0966618342024998 0.0132178033886059 0.1457901128305916 )
( 0.0903338907934373 -0.0332875655810539 -0.0218038950086376 0.0856243912394182 0.0088986675019079 0.1546638670396399 )
( 0.0955444474458283 -0.031674183765274 -0.0239180614605007 0.0782466778307416 -0.0020237893884489 0.167822053027091 )
( 0.0990087400078735 -0.0266014707597402 -0.0223425094979458 0.0734881872410949 -0.0147234753918652 0.1818782536596864 )
( 0.1016016926918759 -0.0192127716712321 -0.0179784987183478 0.0714307381258742 -0.0263469027484165 0.1933339954765643 )
( 0.1050726922202272 -0.0111395778045809 -0.0102167041245041 0.0718795231217293 -0.0347509351777322 0.2008796886805398 )
( 0.1083043582556167 -0.0028183313168586 -0.0002602176641441 0.0740900731677957 -0.038504734044115 0.204257508805493 )
( 0.1100801318939484 0.0062060924653138 0.0109889230033132 0.0774992332636794 -0.0377476408746746 0.2015495058785137 )
( 0.110979588228906 0.0150234191899151 0.0236974091489628 0.0815407608809964 -0.0324405794594052 0.1949713498389986 )
( 0.1105594622610654 0.0229124931164669 0.0351198754402236 0.0847886809016728 -0.0237912665396284 0.1847469183213235 )
( 0.1086634646612613 0.029485844284676 0.0442507517345696 0.0867844751951951 -0.0138269338247254 0.172926396428112 )
( 0.1061806743111166 0.0343352910930643 0.0503488975147885 0.0876014180712102 -0.0048360334909194 0.1624574825305473 )
( 0.1033726586131067 0.0379691875692884 0.0534047516729725 0.0873937204582353 0.0027342700759173 0.1532076623627243 )
( 0.100289533061156 0.0407271182599723 0.0545982599307189 0.0865941557559805 0.0089005651549067 0.1450719014558944 )
( 0.0974415502795114 0.0431755005531872 0.0543766142271275 0.0854633281747238 0.0137173659384027 0.1379988668009712 )
( 0.0953957311279201 0.0457560964422405 0.0532618771455696 0.0841118759496359 0.0178636982609854 0.1321210723948642 )
( 0.0940259295433772 0.0482839246950908 0.0515081875003295 0.0821051557168927 0.0214993700481113 0.1274141837181177 )
( 0.0930881071674302 0.0508323651584078 0.0494095817067478 0.0792745728980993 0.0247721370098903 0.1240085205933249 )
( 0.0832576419869779 -0.0279339846941245 -0.008130187227572 0.1046969715967213 0.0140765888698172 0.1514498428176401 )
( 0.0863919019506902 -0.0311438241648012 -0.0160043729130732 0.0921470695232706 0.014696125793916 0.1529364153631057 )
( 0.091562885717987 -0.0314206473762497 -0.0219071590230071 0.0807143680681841 0.0073069916523466 0.1629202897257685 )
( 0.0959555034712728 -0.0281674573777597 -0.0222398678734948 0.0740469853706589 -0.0047012628781688 0.1759261080826685 )
( 0.0984409072714653 -0.0221382574119165 -0.0190206072022871 0.0703741908703705 -0.0172568978143836 0.1886572460517052 )
( 0.1010524668146883 -0.0142859114952518 -0.0131523367974967 0.0697030266755714 -0.0281712334048128 0.1982124029056294 )
( 0.1037798710017787 -0.005867810991463 -0.0049556918634976 0.0713789445111759 -0.0355073488727697 0.2028029583325967 )
( 0.1051203856821967 0.0028077655376677 0.004914206522295 0.074670909714962 -0.0380077366340896 0.2020620948274163 )
( 0.1064338469621932 0.0117072516471136 0.0165066363556758 0.079560019980267 -0.0357213015008617 0.1959724338085425 )
( 0.1061484112161286 0.0197302339026561 0.0280413166683498 0.0841168266011703 -0.02940059620608 0.1863109864102599 )
( 0.1042816640163062 0.0267028086234951 0.0372713068283722 0.0872622354648417 -0.0204091649133697 0.1739393176949133 )
( 0.1020032177733551 0.0326877643813508 0.044586255177975 0.0893054586729009 -0.0108489561862783 0.1614455807315855 )
( 0.0991603998444073 0.0371180813125682 0.048849240878475 0.089922471458083 -0.0023447153282808 0.1505311998925188 )
( 0.0966371922480117 0.0408521909303984 0.0504044009239497 0.0896744685856151 0.0047597150568097 0.1414441434117991 )
( 0.0941008076589922 0.0441960022007158 0.0501240555011573 0.0891026857314465 0.0103821733267003 0.1338254916452577 )
( 0.092178641060872 0.0472471908406145 0.0488276197434254 0.0883409749783097 0.0146153695048771 0.1275517883610742 )
( 0.0912830615035233 0.0503546428622789 0.0473398823574338 0.0872769918009415 0.0180921722756605 0.1228160606859772 )
( 0.0909798567231695 0.0535473437724615 0.0455995139313218 0.0853794249153346 0.0213352316482902 0.1193307025454345 )
( 0.0913331807571675 0.0570309035709165 0.0435288436020757 0.0827327606699224 0.0243449747306639 0.11690595094833 )
( 0.0827355083446873 -0.0288100370508536 -0.0114044679477702 0.1016658270992844 0.0185797428502873 0.1589319484368084 )
( 0.0862013802751024 -0.0305458101755214 -0.017765222887607 0.0878947222045052 0.0166311008488522 0.1611666595771741 )
( 0.0916030001495262 -0.0291035142029402 -0.0214943058260479 0.0766742166058972 0.0064435164526877 0.1710793888982166 )
( 0.0946357294991598 -0.0239748652244178 -0.0202353394551795 0.070474176658591 -0.0067937878862936 0.1832349142807615 )
( 0.0971792413491668 -0.0175171619079714 -0.0157018386720784 0.068060904858121 -0.0196960905556624 0.1944950709471452 )
( 0.0998419432648232 -0.0097018774939613 -0.0087970269197553 0.0687925181205529 -0.0298821480374789 0.2016017366377928 )
( 0.1015867863506824 -0.0009667718011956 -0.0003828803740486 0.071812616480484 -0.0360655214747048 0.2026261372908328 )
( 0.1015849084631254 0.0080279472507188 0.0091758093824142 0.0763697229730668 -0.0374447104666781 0.1980645619590791 )
( 0.1017059892303466 0.0163344254199022 0.0199288849693463 0.0821080628039838 -0.0339585836262526 0.1895676873392754 )
( 0.1007155633939173 0.0235889931896617 0.0301963515148692 0.0866980455482487 -0.0268705771128629 0.1772466291369921 )
( 0.0982611515471716 0.0301523253195495 0.0378108894657142 0.0899001563746167 -0.0177121240335593 0.1631030830782985 )
( 0.0958796110629236 0.035559909572945 0.0434598759721767 0.0918668184634328 -0.0086426310670974 0.1509630213725825 )
( 0.0930997693481576 0.0401087580450592 0.0461590068123149 0.0925404145344137 -0.0005352545541364 0.140242660004606 )
( 0.0909109662190935 0.0442638219127102 0.0464513569592657 0.0925583994834923 0.0061419886493665 0.1314949729413717 )
( 0.0895316913264467 0.0480300639253615 0.0456517607020485 0.0924950322652083 0.0110247953574986 0.1250321732502096 )
( 0.0886360648735233 0.0516029171758134 0.0439291426142397 0.0920863018409292 0.0146518688781147 0.1198276281409364 )