/*--------------------------------*- C++ -*----------------------------------*\
| =========                 |                                                 |
| \\      /  F ield         | OpenFOAM: The Open Source CFD Toolbox           |
|  \\    /   O peration     | Version:  2112                                  |
|   \\  /    A nd           | Website:  www.openfoam.com                      |
|    \\/     M anipulation  |                                                 |
\*---------------------------------------------------------------------------*/
FoamFile
{
    version     2.0;
    format      ascii;
    arch        "LSB;label=32;scalar=64";
    class       volVectorField;
    location    "0.0054";
    object      U_LES;
}
// * * * * * * * * * * * * * * * * * * * * * * * * * * * * * * * * * * * * * // 
 
dimensions      [0 1 -1 0 0 0 0];
 
internalField   nonuniform List<vector> 
13597
(
( 17.478443277479514 1.6766127035891452 0.0611449193907292 )
( 17.479205775455025 1.7218349341453294 0.063416894594744 )
( 17.491261531670094 1.8150685513667968 0.0645871874415017 )
( 17.51292429395892 1.9349897375613987 0.0637999761094538 )
( 17.532884732606114 2.0385490922309217 0.0606179695923856 )
( 17.546220543871115 2.126867703510801 0.0561059794309656 )
( 17.562695920656722 2.2151810912231427 0.050122785235904 )
( 17.582562636793963 2.3096625871823355 0.0422402875915575 )
( 17.605790041862434 2.4055599609665936 0.0328798404282661 )
( 17.630848213478746 2.5023193112123545 0.0225555027607895 )
( 17.65795066510385 2.6092309413288395 0.011312652604463 )
( 17.690827949485026 2.7154234729570152 -0.000364937921945 )
( 17.72654534943013 2.819598042304238 -0.0112242940101632 )
( 17.763373688897005 2.929165374203704 -0.0216373772822923 )
( 17.8013275232574 3.041149150293102 -0.0318004030404473 )
( 17.84149744123048 3.1509333946489666 -0.0406478890871661 )
( 17.88448787298921 3.254504073867678 -0.0480327103142921 )
( 17.928878013058327 3.3569383603543903 -0.0535508382366634 )
( 17.97430120877615 3.461249921718194 -0.057832221693068 )
( 17.34855391590869 1.709241312297776 0.0831563619111096 )
( 17.329134910731216 1.7665386568551074 0.0857170774722944 )
( 17.31605711493519 1.888137821916956 0.0843551623659795 )
( 17.306617742286182 2.0283378818056743 0.078909501106237 )
( 17.297698354053523 2.140450914352411 0.0708911595224772 )
( 17.28840922699746 2.2470387786022137 0.0607076106286107 )
( 17.284739807305957 2.3558178108128804 0.0484674968899548 )
( 17.282352696666866 2.470713479482504 0.0342397294728047 )
( 17.284885579046215 2.5880761820855533 0.0196809760963191 )
( 17.288689062691276 2.7058480742503 0.0053368376426093 )
( 17.293282061034883 2.8355518012567447 -0.0102631840329383 )
( 17.299195216144494 2.971789773988541 -0.0263067530000136 )
( 17.30325991951005 3.107732342332524 -0.0398785499868787 )
( 17.309999012781116 3.245704010908172 -0.051102642384268 )
( 17.318767290202178 3.3783668444152117 -0.06053777304649 )
( 17.328516623659326 3.50251418598908 -0.0681977107702192 )
( 17.33794773461011 3.6151571962862623 -0.0738018849579929 )
( 17.346338370868747 3.727535299787637 -0.0770686022788903 )
( 17.358932405845724 3.83722273108548 -0.0790107307173603 )
( 17.20667615041088 1.7304796109713787 0.0960583219121605 )
( 17.16251819437943 1.7970491282331609 0.0966960647135974 )
( 17.12281231586996 1.9394171736369776 0.0896910457628458 )
( 17.084662384874115 2.096427128690678 0.076650156217518 )
( 17.049312508788308 2.2177150674958277 0.0624237247154688 )
( 17.021554298791653 2.3411189020914125 0.0467585847982554 )
( 16.99902792173943 2.4693148314340667 0.0288275293936273 )
( 16.971376483071328 2.5985580825318704 0.0097492637680865 )
( 16.948335372166916 2.733166312346724 -0.0085981324790301 )
( 16.928258936630346 2.877499347693492 -0.0263807616604783 )
( 16.90534525494124 3.0274845742219743 -0.0423242789730761 )
( 16.88244128910178 3.1846439613936104 -0.056647322594535 )
( 16.85973904231694 3.343447861716653 -0.0683035353437362 )
( 16.83776360150377 3.4931084070479703 -0.0767110616398384 )
( 16.81774593901902 3.627074406699254 -0.0822739959434998 )
( 16.800459999745815 3.7443194279068326 -0.0858679750267574 )
( 16.780547645131644 3.847793155943165 -0.0879981932437249 )
( 16.759104641742727 3.949156451814917 -0.0886403564118192 )
( 16.745153580725255 4.052881350034272 -0.0888360751222734 )
( 17.053029795815732 1.7410704635164542 0.1017295028882011 )
( 16.986368280879645 1.8172400080844988 0.0982532449786205 )
( 16.925100159939433 1.9730131077564037 0.0841573545105516 )
( 16.86277405156807 2.1420699092720312 0.0635826851051638 )
( 16.801776978228286 2.274517549986222 0.04323809621716 )
( 16.750039747430165 2.4074843161391404 0.0225540765330166 )
( 16.698603022142436 2.5494133249444477 0.0008425391306387 )
( 16.643069003726445 2.692554569169568 -0.020312275732598 )
( 16.594536331199578 2.840133542806852 -0.0391889743322321 )
( 16.54889319040908 2.9969433403315984 -0.0564219991137247 )
( 16.497243498417145 3.1596134240520626 -0.0707088626540668 )
( 16.449783018012116 3.324520770155787 -0.0811313378447841 )
( 16.40523052947017 3.4853782663448927 -0.0886585369226866 )
( 16.357908039821766 3.6356400996673335 -0.0940542092484348 )
( 16.31135433981234 3.762064564497829 -0.0972303347347707 )
( 16.267893480989816 3.8689571250502817 -0.0992694866341872 )
( 16.225799180670208 3.9642692991074 -0.1005390648908672 )
( 16.18085294919293 4.059102594553178 -0.1018365651244087 )
( 16.138960719461902 4.164575680243558 -0.1031885879620087 )
( 16.899583306580357 1.7428551335474085 0.1015522864952061 )
( 16.81798229448977 1.831432608113834 0.0925527990239358 )
( 16.73484312586898 1.9997314559435413 0.0718041098070475 )
( 16.64714756490555 2.173230462048976 0.0451937176818503 )
( 16.56362897788185 2.3120808948126483 0.0203883579952342 )
( 16.48628869466613 2.450828448564 -0.0038690120716771 )
( 16.406531744732693 2.600519936726526 -0.0270950257226895 )
( 16.326477042447312 2.7515247207475046 -0.0478452648644234 )
( 16.25184688192436 2.901099563910715 -0.0656949936092436 )
( 16.1768490891062 3.0591939629118423 -0.0804186368631353 )
( 16.097514823032736 3.228932032319059 -0.0925701130891776 )
( 16.021694586225237 3.3981756165482664 -0.1011136663666447 )
( 15.947981180009016 3.5579488833909503 -0.1068955125145629 )
( 15.872497545769116 3.7044638184239655 -0.1116513448596397 )
( 15.798457220726553 3.822353969690861 -0.1151185702308426 )
( 15.7270019261048 3.92727814226871 -0.1181372573813869 )
( 15.659550793727766 4.02692569562684 -0.1206963519173404 )
( 15.593262312697243 4.125974275577367 -0.1234226780249364 )
( 15.527342113009723 4.238284420653411 -0.1261969122330838 )
( 16.753801020284325 1.7358479886581604 0.0978827564736712 )
( 16.655926117681858 1.8354989842995848 0.083645568974036 )
( 16.54797239245624 2.017384469497566 0.0559441689490148 )
( 16.43847765128979 2.19309268106607 0.0245661526164566 )
( 16.336566297333793 2.333971791081418 -0.0022627994385545 )
( 16.238705176235776 2.476631238347038 -0.027768321436221 )
( 16.138382184142156 2.625094355366903 -0.0510650153179183 )
( 16.03431016900254 2.7744713391552973 -0.0705544226355718 )
( 15.927194213803642 2.9239472976195864 -0.0874681513189217 )
( 15.819200785032937 3.088355856160484 -0.1014863883787421 )
( 15.714009799535877 3.259471204396194 -0.1120814767910732 )
( 15.607351987073988 3.426383531979636 -0.1201353195813233 )
( 15.505596860713004 3.5864931175934025 -0.1261480772326838 )
( 15.407728437270311 3.7295947951094 -0.1307232530609175 )
( 15.310109575149427 3.8474614299208665 -0.1349507425202198 )
( 15.220929469879064 3.9512129126580025 -0.1386735761678135 )
( 15.134107750316952 4.051814247007903 -0.1419820844654795 )
( 15.047689904309037 4.154079386522503 -0.1448374878384249 )
( 14.962657054337168 4.271511088262086 -0.1472380199962484 )
( 16.608419897918804 1.7219236385056385 0.0927592683941533 )
( 16.49586043237174 1.832975727550901 0.0734780952986653 )
( 16.36943818575499 2.023236080852738 0.0397982643589552 )
( 16.241050126974567 2.196961508232182 0.0047663574384874 )
( 16.12080565802519 2.336419447155522 -0.0241045077312852 )
( 16.00008848807082 2.476696158365628 -0.050082683770196 )
( 15.876369138272732 2.622912519537345 -0.0730092833096151 )
( 15.748926033256817 2.771500703925519 -0.0914755479673627 )
( 15.61455556903598 2.919759098672928 -0.1069954799001296 )
( 15.484905385103124 3.0837843468058628 -0.1193857532047143 )
( 15.35488767610064 3.2553157777813166 -0.1292240196392694 )
( 15.22023999309254 3.424154796674445 -0.1373590251032275 )
( 15.095393643867386 3.5820334471398536 -0.1430717028020263 )
( 14.976706544729034 3.721790312934662 -0.1470656229856363 )
( 14.859074942197056 3.84393478323516 -0.1505360057346151 )
( 14.750121791093225 3.946674803146548 -0.1532422478347047 )
( 14.64589884356356 4.046648570829792 -0.1552554627358402 )
( 14.540240356132257 4.155639360288142 -0.1568771379008917 )
( 14.43618018734404 4.278974467116888 -0.1578833374017467 )
( 16.473299511254687 1.7041070292800573 0.0868700028542503 )
( 16.34705794710227 1.8200267588929957 0.0619975326494642 )
( 16.203340067982232 2.0114406210744167 0.023047807699206 )
( 16.057647255769126 2.181781629317902 -0.013973878428189 )
( 15.916911026241966 2.31970780414582 -0.0443592323349287 )
( 15.77366154543183 2.459397427399915 -0.0701388324511704 )
( 15.6264723004585 2.6042313231108527 -0.092201245587772 )
( 15.478336821654883 2.747247842095051 -0.1095001477715366 )
( 15.320253277745564 2.8934548975550443 -0.1238742780053349 )
( 15.16815163432388 3.0595756926669324 -0.1349842197163078 )
( 15.013022489486682 3.232195824637779 -0.1434624280187162 )
( 14.857775560536416 3.403972252021064 -0.1502279504763166 )
( 14.711997436548202 3.562262222828908 -0.1543949667719276 )
( 14.56912412267342 3.6968222910904673 -0.1571142609026757 )
( 14.437384609909596 3.8138840428617953 -0.1590265735656094 )
( 14.30994252157098 3.918571090449036 -0.1600921425911379 )
( 14.186278906634287 4.024263887466075 -0.1604672733596915 )
( 14.063433836020584 4.141651778276632 -0.1603908293972059 )
( 13.94221056190564 4.27257935728205 -0.1594842282025832 )
( 16.348768754542846 1.6765567439448763 0.0796659118209692 )
( 16.20695879831513 1.7910734437086553 0.0494588272998434 )
( 16.044766508083484 1.982099149794687 0.0062038035550321 )
( 15.883705244437357 2.1482423223630405 -0.0317565470973401 )
( 15.72242433709548 2.287195598887244 -0.0620567641166199 )
( 15.561355690184689 2.423758975858876 -0.0873129776436002 )
( 15.395916585838783 2.562060373373198 -0.1078269937692909 )
( 15.228880060038586 2.707024675110232 -0.1237025989255193 )
( 15.053454159233295 2.8568945147257883 -0.1366890311149006 )
( 14.870989283994822 3.020429190076308 -0.1464828186480337 )
( 14.692063535868003 3.1940939612721797 -0.1529965986542274 )
( 14.521152735203822 3.3657440322140144 -0.1573142683328524 )
( 14.351283177734224 3.524078412863656 -0.1595079716144947 )
( 14.188714936435549 3.6587822436405055 -0.1606539049096362 )
( 14.043667192141871 3.77346669319134 -0.1611130725907814 )
( 13.898669557501949 3.882207216030337 -0.1606759895616678 )
( 13.755160510158484 3.991872193311436 -0.1593617659922364 )
( 13.613036236894832 4.113639097841085 -0.1571760775130455 )
( 13.47046574008953 4.251617770119977 -0.1543035484294809 )
( 16.228831681086284 1.6457768506425017 0.0703249912614713 )
( 16.073117926352168 1.7649783790378235 0.0346977643467237 )
( 15.894925670574594 1.9526436346060756 -0.010607414030807 )
( 15.71786976149186 2.1081038418401943 -0.0479617387276492 )
( 15.54053517612276 2.2454653330051326 -0.0781688631946075 )
( 15.363615320171286 2.374087678550377 -0.1018137255054013 )
( 15.177928426410736 2.503813739343394 -0.1202224097299519 )
( 14.986287198813429 2.6482686601977234 -0.1347726443134264 )
( 14.795262587830496 2.797568046758176 -0.1453320855278912 )
( 14.594603500197964 2.9613317305149707 -0.1528453502961932 )
( 14.3964084315725 3.1412096869372026 -0.1577001407580874 )
( 14.206901884309069 3.3168413827388843 -0.1600814035257323 )
( 14.019417572738648 3.4722925289311144 -0.1605522999603514 )
( 13.843455096178294 3.6082432940577696 -0.1599914385283628 )
( 13.678028965491066 3.724846702088967 -0.1584365660198783 )
( 13.511789132325466 3.833816313970514 -0.1560997612016923 )
( 13.344765586740172 3.9450205026161935 -0.1531359901826521 )
( 13.180598506598528 4.0692889194299005 -0.1497660327966155 )
( 13.017721534798376 4.214798051563633 -0.1468101555908488 )
( 16.11915186685339 1.6136200737527306 0.058746740392369 )
( 15.953186936243194 1.7360861680155422 0.0194819115550769 )
( 15.75453173420083 1.9172696574691863 -0.0262237634344498 )
( 15.565337972228642 2.0609104189479552 -0.0619951424578861 )
( 15.374373176519342 2.190511273797596 -0.0910674409641786 )
( 15.177918922464622 2.3141463219517675 -0.1128033809645929 )
( 14.97453795156507 2.4367067281508 -0.1297516335543636 )
( 14.766952079363897 2.5733000183025827 -0.1425200739666972 )
( 14.556863508623382 2.726582024762634 -0.1504953062064869 )
( 14.341937303405157 2.8941072724065706 -0.1556693167512778 )
( 14.125615792079136 3.0749352949192947 -0.1584939720905659 )
( 13.911831656967593 3.257070036899578 -0.1587782291208814 )
( 13.712135323274262 3.411709661073133 -0.1577313757406911 )
( 13.52183139940056 3.54832235941627 -0.1556252028154107 )
( 13.331090404491368 3.667115225441951 -0.152336233709856 )
( 13.139727606895454 3.77534203241208 -0.148841023183752 )
( 12.950403646869296 3.889107214048104 -0.1457406172485133 )
( 12.768427089945236 4.018103375722891 -0.1433914020747017 )
( 12.585249726892563 4.172133772736953 -0.1414554700427837 )
( 16.01459318326951 1.5755696524003515 0.0462437413099396 )
( 15.836137911819112 1.6985926039902548 0.0048052661644817 )
( 15.62012505683933 1.8739164318569983 -0.0410894019131738 )
( 15.419994868397149 2.0050936738500416 -0.0745031742954847 )
( 15.21497631989708 2.12309804320216 -0.1012411114059492 )
( 15.001388954729684 2.24375022674002 -0.1217065325938687 )
( 14.788245467262149 2.369756027020569 -0.13669877610802 )
( 14.566764168328556 2.506055571966056 -0.1468742729405246 )
( 14.338629242393427 2.660511652487027 -0.1525633165593015 )
( 14.106132634450894 2.827298203641873 -0.1556267027989005 )
( 13.872437370072722 3.0050613829444197 -0.1563725300203811 )
( 13.639434824997585 3.1835330526544863 -0.1546518435707432 )
( 13.418608310424403 3.3424296708017733 -0.1521535053551774 )
( 13.20617778558939 3.485878386284229 -0.1493350240913015 )
( 12.991928675435584 3.605074598558717 -0.1459820184215022 )
( 12.78226185589737 3.7104502652572897 -0.1429653191970462 )
( 12.578095573174886 3.826327103196029 -0.1405636193629696 )
( 12.377897073724982 3.965854145275043 -0.1384724431938183 )
( 12.173998531523653 4.130688938341555 -0.1350800689609774 )
( 15.91398174837591 1.527971237888877 0.0342228446655487 )
( 15.72432547391262 1.6506408672670183 -0.0076628103946066 )
( 15.498866749876878 1.8208605946229213 -0.0533631538173319 )
( 15.283826424570488 1.946086892227121 -0.0855455864364411 )
( 15.067448671121866 2.061864410770189 -0.1103067509374373 )
( 14.842977362377548 2.180033378945613 -0.1284679575222192 )
( 14.617032733059016 2.3045369383168977 -0.1406848446202585 )
( 14.378248457550512 2.437427353742489 -0.1483999830871562 )
( 14.132651411105948 2.58629009529154 -0.1526839150341943 )
( 13.886330554272934 2.755782845374225 -0.1537091283113185 )
( 13.633297782183234 2.939631459666007 -0.1527804105194099 )
( 13.382625539550562 3.11501442271286 -0.1504981289758074 )
( 13.13729857718636 3.274135834227573 -0.1468262460798944 )
( 12.896900724740776 3.417236674531733 -0.1434438135737423 )
( 12.667842267787508 3.5310233110070244 -0.140984066492046 )
( 12.44855275317479 3.638334480033428 -0.1384047163452369 )
( 12.22775244726078 3.7610508788829753 -0.1350340594665892 )
( 12.004163379313365 3.908371520732326 -0.1309176059729213 )
( 11.772049693283137 4.088292428063611 -0.1245349507612307 )
( 15.821788354274108 1.471514180381587 0.0226848419017908 )
( 15.626320167062058 1.5931572261154492 -0.0186536105319859 )
( 15.388380527983632 1.759816871383466 -0.0629206212027303 )
( 15.159937844422558 1.8814793340419813 -0.0938082073088889 )
( 14.93216018889164 1.995688907057768 -0.1163744372707674 )
( 14.700727691554466 2.10810216104236 -0.1316398584652572 )
( 14.461034784063203 2.2283160325589875 -0.142001195075788 )
( 14.212133861231472 2.359732983625486 -0.1479993997243412 )
( 13.949738807335212 2.505562922312981 -0.1507615490026121 )
( 13.682982826001924 2.676065686201466 -0.1504237710330509 )
( 13.409253471165549 2.863448748833944 -0.1482515902228748 )
( 13.135064203826976 3.0445118151833626 -0.1457235858782766 )
( 12.869454345289176 3.2060575632715187 -0.1420927931489708 )
( 12.61356751187954 3.340486364159451 -0.1387521437691142 )
( 12.370125980550162 3.4507928964840437 -0.136129932064598 )
( 12.130996551653356 3.566457647741447 -0.1325073608308261 )
( 11.88893106347414 3.7024038118488503 -0.1275462978842055 )
( 11.636771587328004 3.853170741805556 -0.1210298239086349 )
( 11.36714467359658 4.039679494170352 -0.112858233565584 )
( 15.738747099290098 1.4149388610150944 0.0123988377896835 )
( 15.53262433503346 1.5358516804232876 -0.0284908688991157 )
( 15.273480928193488 1.6994820875238978 -0.0730708059389022 )
( 15.03743101530298 1.811827578630397 -0.1005604197848069 )
( 14.80437371278481 1.9195247240828432 -0.1204603352043981 )
( 14.566288864635132 2.0287212270843185 -0.133783403445817 )
( 14.313977576773915 2.145412489351228 -0.1416896803696783 )
( 14.050035751290332 2.2778381563651107 -0.1460771286277486 )
( 13.775608610170758 2.4228481275633524 -0.1473329008030133 )
( 13.490987273673534 2.589378701936515 -0.1460476928709094 )
( 13.193645127992763 2.77869215291969 -0.143420137615713 )
( 12.89477965375814 2.9613172109833323 -0.1403266257602234 )
( 12.608086787550436 3.1256093358973254 -0.1368722643284523 )
( 12.34217842167724 3.257396948205721 -0.1337029062397364 )
( 12.086006812400615 3.36888560319291 -0.1299688878360932 )
( 11.825454836436023 3.4905233008910392 -0.1251002745262553 )
( 11.55341148661008 3.633242230585488 -0.1188602076340767 )
( 11.266175352206206 3.796953051147515 -0.110968469516423 )
( 10.973030738860189 4.0036615478362245 -0.1033125559465818 )
( 15.661002815621318 1.360308395589392 0.0032141808406096 )
( 15.44436264358175 1.4784135694620164 -0.0363850498808948 )
( 15.17147384668075 1.6355443297674632 -0.0797091118996267 )
( 14.928060695892432 1.7375124593913056 -0.1049932936602419 )
( 14.688982609874447 1.8356032042883836 -0.1224258351542517 )
( 14.44139480623932 1.948567977478577 -0.1342943829133178 )
( 14.17827511943077 2.060214979246051 -0.1405197904937929 )
( 13.897065135034564 2.1851689193152897 -0.1432280347708353 )
( 13.607137008567484 2.3348876740919797 -0.1434023591897153 )
( 13.305822763386788 2.4990569539782297 -0.141429135011897 )
( 12.981636182924063 2.692719990448245 -0.1388213873886497 )
( 12.656839062471738 2.880740124758973 -0.1352232419063579 )
( 12.35991980780152 3.03830454467281 -0.1312598668286743 )
( 12.087461679763976 3.167607254495165 -0.1273756220108066 )
( 11.815278048902558 3.285069579584988 -0.1227248916891365 )
( 11.529648944948256 3.4122777416478 -0.1170567567012068 )
( 11.223568544629146 3.559842685342465 -0.1090231050815951 )
( 10.904356714753035 3.742530985496289 -0.1023782513779279 )
( 10.613605453402318 3.9921356836981214 -0.0980853894732779 )
( 15.589531890511868 1.3054149248531783 -0.0047716166229457 )
( 15.359758820836625 1.4167169362458043 -0.0440576604250745 )
( 15.0790624525029 1.5695081545801202 -0.084310764567423 )
( 14.83407304208004 1.6661382720535567 -0.1078012393542559 )
( 14.586383350201256 1.7590690565973488 -0.1227962816215411 )
( 14.323552249142924 1.867644136241768 -0.1326386507121605 )
( 14.04770257031123 1.971780066307586 -0.1382770692652002 )
( 13.760499221076644 2.094743151881584 -0.1401659287939901 )
( 13.45333705175223 2.246934341848458 -0.1393882298893132 )
( 13.12834172808084 2.4060744046333404 -0.1372466715158508 )
( 12.791965285779243 2.5953185653031845 -0.1342283861348789 )
( 12.448957308123385 2.7964122638938003 -0.1299638424053478 )
( 12.138959713851524 2.952773264976969 -0.125297763700305 )
( 11.850154976672467 3.076099742770741 -0.1203831545594691 )
( 11.55165300156726 3.199299717414361 -0.1157143634617414 )
( 11.231201487225125 3.328675220337904 -0.1095988772591137 )
( 10.897176711468916 3.4885578040583933 -0.1025538205127454 )
( 10.57277752187457 3.7002214870413 -0.0990065866601767 )
( 10.303992370618396 4.001176408269093 -0.095959089571831 )
( 15.519980224477427 1.2490857817059886 -0.0122284681768068 )
( 15.281428401330752 1.3533066968097849 -0.0504542478939011 )
( 14.99352994188476 1.498000184120438 -0.0881509631626226 )
( 14.74795744609798 1.5897362920495266 -0.1092337076171501 )
( 14.493003192527588 1.6838535054302042 -0.122605775555752 )
( 14.216704183640935 1.7871120610187805 -0.1307421453651908 )
( 13.931820433363296 1.8807362237694785 -0.1351800942309886 )
( 13.632983193015423 2.005886503052329 -0.1362882822678294 )
( 13.307200442630096 2.160469242724292 -0.1352131973476498 )
( 12.963637120318566 2.3217999290287703 -0.1323177202460038 )
( 12.607751009758706 2.502434341263768 -0.1279071738876901 )
( 12.250549398035952 2.690697935563449 -0.1231515644073883 )
( 11.92695185598198 2.850929659562556 -0.118621484565046 )
( 11.613400572526754 2.9822152345869526 -0.1135085003554299 )
( 11.286228845271324 3.101227866108073 -0.1087105941387674 )
( 10.940789031519715 3.235217398725424 -0.1033695704631554 )
( 10.589096636656524 3.413398512786177 -0.0988845457493302 )
( 10.279663487264225 3.670124976274338 -0.0975138652157194 )
( 10.008206501561103 4.025617536339517 -0.0952030032993955 )
( 15.456917511890856 1.1896409041164528 -0.0186682873052539 )
( 15.212563983953263 1.2866930047337932 -0.0548706244937941 )
( 14.914903610257454 1.4196098523210088 -0.0904082838810864 )
( 14.667434461354611 1.510209067019617 -0.1094388858881352 )
( 14.404145666997843 1.6008534372844043 -0.1215808070841165 )
( 14.114959583793365 1.701617796989631 -0.1288092947766954 )
( 13.829725281235833 1.7962446648282386 -0.1317752256818899 )
( 13.516878757616231 1.912660737280481 -0.1314889826163186 )
( 13.16942550783428 2.0653476230047576 -0.1301207811509912 )
( 12.805475036114313 2.232733367577997 -0.1267896661482284 )
( 12.424817404018306 2.4142353624847748 -0.1218699309570337 )
( 12.061370837942944 2.5899847121525474 -0.1173174352120102 )
( 11.718044344561946 2.7428396156387724 -0.1131986256891416 )
( 11.3757497747728 2.8787316301392543 -0.107760604212624 )
( 11.030917376385256 3.0035499857134877 -0.1021832452762644 )
( 10.670567863470254 3.1530840965226696 -0.0974927680599425 )
( 10.31151232674326 3.358221986113493 -0.0953980116328391 )
( 10.006422156216312 3.654913621971053 -0.0956327935879105 )
( 9.64235805380012 4.012439645499994 -0.0955833547156291 )
( 15.403293098333467 1.128609521840266 -0.0227428883822938 )
( 15.14745482242922 1.2145460947417603 -0.0576705228351292 )
( 14.842462968628524 1.3397799308725449 -0.091378997225416 )
( 14.59060869050258 1.4287011647632697 -0.108728967499335 )
( 14.320313227934738 1.5177918398755146 -0.1196301743829301 )
( 14.021635474188203 1.6202614308808436 -0.1257105987601299 )
( 13.725244487357054 1.7132678016280514 -0.1275040621454375 )
( 13.405615709182538 1.8206617935352707 -0.1266231865132036 )
( 13.046354055261672 1.9655994667796304 -0.1246460869189423 )
( 12.660948889022976 2.127948440046176 -0.1210678334487369 )
( 12.261465978734927 2.315552720162709 -0.1171472306589891 )
( 11.884919289729163 2.4956083823210147 -0.1134240466404928 )
( 11.516951076013273 2.640721165053746 -0.1090166662106887 )
( 11.153170414966814 2.7701847941980766 -0.1034432816297423 )
( 10.784031478615988 2.913982668060077 -0.0970390355603498 )
( 10.41022760412022 3.081357657030829 -0.092606646765918 )
( 10.057609072680066 3.31433883569605 -0.0931264873843671 )
( 9.700089396305906 3.639325340350992 -0.0934115894589833 )
( 9.16167475507078 3.9322685089075806 -0.0945489195346395 )
( 15.350359485216917 1.0628754530956603 -0.0262007561292242 )
( 15.090186733830336 1.1451203649815769 -0.0598435563995527 )
( 14.782953800642357 1.262426590569499 -0.0911248562340313 )
( 14.52128142466201 1.3409842642010898 -0.106718968632447 )
( 14.244367701486098 1.431020578957693 -0.1164962767140048 )
( 13.940039156196017 1.537534893087411 -0.1214186585649898 )
( 13.629898716979383 1.6244692689330498 -0.1226669511706949 )
( 13.304212422277168 1.724904239507626 -0.1219415657134345 )
( 12.926238103015011 1.8679819830641928 -0.1192827890801641 )
( 12.523613466427564 2.02867436770298 -0.1151496162929552 )
( 12.109118607222722 2.2120516348353765 -0.1122593777421959 )
( 11.70521034065922 2.3926204715220347 -0.1088867684597002 )
( 11.324702970273336 2.5434560344676536 -0.103986673588167 )
( 10.954082375252131 2.6719501898040114 -0.0992382884912744 )
( 10.560561590102518 2.825408516019424 -0.0944546726689015 )
( 10.165440922613344 3.0123969715637906 -0.0923920882086279 )
( 9.809525144054072 3.2696019018868587 -0.0922598286387022 )
( 9.360839725604272 3.5988107944282284 -0.0920387775006895 )
( 8.550175664399752 3.763713447435401 -0.0925118560948311 )
( 15.299654902413993 0.994795279040185 -0.030312938198714 )
( 15.03905489849384 1.077309650806752 -0.0611743323004913 )
( 14.72848091470152 1.1901278729775464 -0.0902055054024607 )
( 14.461815671067148 1.2635336152359349 -0.104641921883615 )
( 14.17528939882108 1.3489390914329369 -0.1131147814588695 )
( 13.857450318213596 1.443500613416208 -0.1170770841269104 )
( 13.537229326064516 1.5286794919411524 -0.1177525665225587 )
( 13.205169195786954 1.626085762646872 -0.1167657024836284 )
( 12.802121419161612 1.7672521081258197 -0.1138350015903263 )
( 12.382664808276427 1.9333242037986933 -0.110114335936002 )
( 11.964948985116308 2.1101298813753853 -0.1079224038576858 )
( 11.549377739988408 2.290751042489873 -0.1042548757765059 )
( 11.153780818007451 2.4494686963777066 -0.0993257550959974 )
( 10.756787859211668 2.5783066909669383 -0.0945955078991137 )
( 10.351772325879695 2.7320284129398296 -0.0912422376919436 )
( 9.947013520191774 2.9380180295619525 -0.0911620065181622 )
( 9.53684662961244 3.2202981443873444 -0.0919992513875898 )
( 9.014322812074184 3.539560525426144 -0.0941491048653105 )
( 7.7577116293638255 3.467789744355193 -0.0880856274074353 )
( 15.253108204597448 0.9333485951818769 -0.033607392611094 )
( 14.98818736267161 1.0104245030310133 -0.0617635346163816 )
( 14.675115867172304 1.1178553473660964 -0.0888519817882894 )
( 14.407839901154627 1.1904502946719349 -0.1021953065550446 )
( 14.111308632027963 1.2683209939359437 -0.1094282976645495 )
( 13.786871308790658 1.35135163221137 -0.1130311306848618 )
( 13.45796205046178 1.4405367492786347 -0.1140002311371815 )
( 13.108221664739904 1.54342320570465 -0.1124601452442751 )
( 12.686027840186735 1.6750166928400143 -0.1091268864342925 )
( 12.245273342518932 1.8393213814407543 -0.1057709032429381 )
( 11.820812076956148 2.009454872501491 -0.1035757578680789 )
( 11.40511918682074 2.1758801284255496 -0.1003071913747234 )
( 10.993095571193706 2.3316072134117545 -0.0957926501735711 )
( 10.568935618698056 2.4709588361453574 -0.0909676724443539 )
( 10.14579666204306 2.6332155560963373 -0.0865521792162147 )
( 9.727805535419908 2.855726834579969 -0.0859958721144053 )
( 9.241807919470338 3.151971551081724 -0.0891025846184049 )
( 8.507671611070196 3.3839456154505894 -0.0900925897255213 )
( 6.972390645733699 3.133249446781062 -0.0793436101140274 )
( 15.213429285315945 0.8707456018950608 -0.0351211956046538 )
( 14.944014561371336 0.9445532698081132 -0.0618770987319624 )
( 14.623788980898484 1.0464008368833686 -0.0876328288182939 )
( 14.353418871175798 1.1118488062038228 -0.0994606133151796 )
( 14.051367381515693 1.188904568162308 -0.1052696680422209 )
( 13.727105446111327 1.2749134223042595 -0.1088560302361501 )
( 13.394686913922676 1.362712708727856 -0.1106141386165566 )
( 13.02308911232855 1.4607130846032692 -0.1082643439855325 )
( 12.589550886704412 1.588369346718631 -0.1046039306819386 )
( 12.14009891767906 1.7481022530246633 -0.1016600147090656 )
( 11.697265624009614 1.913210754666118 -0.0996497971239376 )
( 11.2576889296911 2.065991100378715 -0.0969130712732076 )
( 10.825963873418136 2.210538967294428 -0.0932650130318141 )
( 10.386393895770372 2.354930108914097 -0.089826213989106 )
( 9.949765142712648 2.533721344278629 -0.0860312104942321 )
( 9.50015288488694 2.7849658036579723 -0.0862545146970974 )
( 8.950263141909167 3.0735203229532297 -0.0872460890452146 )
( 7.938868084954988 3.152433876542005 -0.0826377814014023 )
( 6.286512138648474 2.813056154246705 -0.0725096460005767 )
( 15.179600188223947 0.8052221632401257 -0.0361909644437283 )
( 14.910257858798014 0.8780038365897883 -0.0612434711666462 )
( 14.58144525965814 0.9765171920793984 -0.085780327468086 )
( 14.303228343707818 1.035214147580268 -0.0964506835822452 )
( 13.99449925740533 1.107379216464629 -0.1013998155715371 )
( 13.666169255441549 1.192363178368233 -0.1042746940907577 )
( 13.327658719295352 1.268208297103848 -0.10521309346828 )
( 12.944280943358995 1.363514924899765 -0.1029250782525812 )
( 12.509936100745836 1.5007178057611843 -0.1000237566974133 )
( 12.052829113283964 1.6555790642492556 -0.0980732459543102 )
( 11.58669711495866 1.819208500463025 -0.0969767016081648 )
( 11.122835230381533 1.96114562921464 -0.094142749462309 )
( 10.67212931366317 2.0958569834428644 -0.0918021947817609 )
( 10.20720920400252 2.244241442590775 -0.0896553367874263 )
( 9.75565377946636 2.433095536749066 -0.087313905189388 )
( 9.252774715602945 2.699303574501209 -0.0888480407993103 )
( 8.618661644588977 2.9570723492915256 -0.0884209637899163 )
( 7.450031458053317 2.919703018718068 -0.0790458790626529 )
( 5.643683398753621 2.483574167978638 -0.0661493269201673 )
( 15.149675475944386 0.7480088890524985 -0.0376700340811687 )
( 14.878783672603642 0.8144425722501165 -0.0603670045272777 )
( 14.544736068728085 0.9048261903807716 -0.0832006632797379 )