/*--------------------------------*- C++ -*----------------------------------*\
| =========                 |                                                 |
| \\      /  F ield         | OpenFOAM: The Open Source CFD Toolbox           |
|  \\    /   O peration     | Version:  2112                                  |
|   \\  /    A nd           | Website:  www.openfoam.com                      |
|    \\/     M anipulation  |                                                 |
\*---------------------------------------------------------------------------*/
FoamFile
{
    version     2.0;
    format      ascii;
    arch        "LSB;label=32;scalar=64";
    class       volScalarField;
    location    "0.0029";
    object      k_LES;
}
// * * * * * * * * * * * * * * * * * * * * * * * * * * * * * * * * * * * * * // 
 
dimensions      [0 2 -2 0 0 0 0];
 
internalField   nonuniform List<scalar> 
13597
(
0.2555876045759873
0.2576709456334723
0.2625038706666698
0.271761271554495
0.2805890235957139
0.2877115411014139
0.2941689190642436
0.2989967497627722
0.3032529135348434
0.3059872476377706
0.3072854049403909
0.307947168103966
0.3066477577808555
0.304487646123295
0.3025698003577338
0.3004854006635052
0.2976449551151316
0.2936325652277269
0.2900817857066506
0.2619622398756212
0.2649594450424243
0.2709898826863527
0.2819254178946417
0.2899696485330177
0.2962891364718154
0.3011482860162062
0.3047845086734166
0.3078727982922328
0.3088227473818905
0.3081711032581204
0.3068009486601252
0.3039014339876244
0.3005524423110164
0.2977292257267391
0.2946501874224363
0.2915578605478262
0.2880943163817734
0.2851410203091895
0.2696653195469674
0.2732335963882425
0.2790410348159266
0.2878967825662824
0.2928878283269039
0.2968903411916617
0.2986346892266948
0.2988320813533899
0.2989240246181756
0.2979097892381519
0.29565996227148
0.2940051541705585
0.2928293360479004
0.2919026127992534
0.2917535640561352
0.2919773244695938
0.2925331923536057
0.2932679087674372
0.2940696244950455
0.2761810765528465
0.279012456230417
0.282878007560717
0.2876668379342893
0.2889253864331046
0.2893105354854499
0.2888414544787161
0.2880453434859349
0.2880839778664558
0.2893772666875581
0.2909577273538479
0.2939828066463614
0.2979700272526988
0.3034185496349926
0.3092238445403648
0.3143925922841803
0.319426347763835
0.3247220082231348
0.3298423947115214
0.2805578308348189
0.2806409941849092
0.2807868032284564
0.281571165531864
0.2799859016767802
0.2792170355706705
0.2796240300658942
0.2811047182726454
0.2848583657229797
0.2915891300190834
0.3008255741609273
0.311365841330437
0.3224320120477265
0.3341121996944119
0.3445939730198967
0.3538789136549502
0.3624117434286024
0.3704039718687709
0.3778098257503232
0.2806316991400037
0.276576046939806
0.2723971179908571
0.2706618656734462
0.2690072297542
0.2706061827132553
0.2748439557847675
0.2815392015074928
0.2917253297634198
0.3056539936086459
0.3217680232160856
0.3381366450557093
0.3546250081552953
0.3696692226479401
0.3826325613951896
0.393703241752212
0.4039082741280603
0.4128927720112466
0.4211093890643377
0.2742303156728827
0.266794447719873
0.2614920185656078
0.2600179927653671
0.261185083375657
0.2662421472581914
0.2748262061989865
0.2879421995846229
0.3043859307485521
0.3238549524309864
0.3450685459544465
0.3660569107168213
0.3858514096545085
0.4029281310455831
0.4179033380296573
0.430684589593974
0.441832203453616
0.4523624106836552
0.4619442945276471
0.264821610863249
0.2554596252360404
0.2512724298139434
0.2520393326567732
0.2564205136793427
0.2655542559956501
0.2791928386094774
0.2978445110411929
0.3199836892484215
0.3438907649217336
0.3695285272536005
0.3946086695232891
0.4163934028013157
0.4352779122969929
0.4512973934290136
0.465647326859708
0.4788623031786908
0.4917016817286952
0.5033434248932972
0.2534128964735005
0.2433066080433475
0.2411184360533915
0.2450596867084212
0.2536246722748727
0.2674442395733095
0.2861124603119109
0.3097544482055087
0.3367993611824485
0.3659057855897931
0.3949095281347168
0.4222278363462389
0.4457665513572657
0.4667839137224897
0.484948414198566
0.5014002080956539
0.517127986537515
0.5325048528076796
0.5473487919895059
0.2420288064932093
0.2328740332139686
0.2326078519345944
0.2400459086360026
0.2533600772187712
0.2718161332977647
0.2949979328193037
0.3237154847994078
0.3547522928246693
0.3869814097714056
0.4189401859131819
0.4483556747604298
0.4744201852941557
0.4976714675380949
0.5184886560630005
0.5383385083932631
0.5578513223514614
0.577053239152541
0.5962677056600043
0.2313832922386278
0.2238413791674637
0.2264166654080791
0.2371798657074915
0.2540024549297335
0.2771957138978495
0.3053881563057677
0.3381864462360324
0.3729689743672105
0.407198433856328
0.4413928578071739
0.4741057231191228
0.5026100171091628
0.5286788013797299
0.5533490155075641
0.5777368247518716
0.6025816495283209
0.6270428743107211
0.652452790983066
0.2208348031953023
0.2158389499372363
0.2227604717205817
0.2365205191692531
0.2568236079460358
0.2840778298224047
0.316832145420682
0.3531415565684522
0.3902969046633233
0.4269800808746293
0.4635151995166766
0.4991356698455145
0.5311858487142811
0.5617515068512803
0.5919531953222817
0.6216950395406214
0.6519741341573783
0.6836439020101679
0.7173009146045153
0.21214466200985
0.2092203552944097
0.220171522614359
0.2379024679656773
0.2625546606381966
0.2933356844209625
0.3289042628991991
0.3679546792442157
0.4072936061926724
0.4460493677481525
0.4861477272443136
0.5250761817917877
0.5617364632209263
0.5983780463128231
0.6338635796386999
0.6692239850320955
0.7073751801891981
0.7485824095820451
0.7908294580785347
0.2058380692688197
0.2048283071623316
0.2190120915607216
0.2402997641164234
0.2687512395529813
0.3027374461666541
0.3402302595561693
0.3799416421705008
0.421643856565147
0.4641442932190391
0.5076817030996805
0.5516106639922628
0.5943264171239657
0.6362978346246989
0.6781009410274681
0.7222125037669331
0.7705824755775466
0.8213984473198307
0.8736113088647871
0.200703200177872
0.2023040795189866
0.2204578326070161
0.2443863664292008
0.2751603084312846
0.3106370893628847
0.349899481994236
0.3915894136982271
0.4354153767524545
0.4812148343739482
0.5294691952180648
0.5795399569359495
0.6296276676288101
0.6775932029595597
0.7271883146145536
0.7815867508212199
0.8404082599892652
0.9027485971974586
0.9749515036650748
0.1960191975767806
0.1998560984277102
0.2216472878824699
0.2488810903278012
0.2814526558362681
0.317954337154843
0.3583855232222223
0.402472591502823
0.4495498335946741
0.4983197018586736
0.5528692981154818
0.6110598690980255
0.6671909795792769
0.7218036709373358
0.7805991753826313
0.8451623609014053
0.9164903308063156
0.999413696180966
1.1076846270342149
0.1922334233617157
0.1986033912618326
0.2234683091380138
0.2530580792240948
0.2872875816572379
0.3257459982778276
0.367450146831384
0.4125876404349401
0.462722526748339
0.516185597139005
0.5749358278923414
0.6405790327440226
0.7044314604117489
0.7674360960884055
0.8367102147549712
0.9137971092286812
1.0032112695103057
1.1192027673749907
1.2679870420557915
0.1902756538326449
0.1991635125861652
0.2260149375105706
0.2566777335764034
0.2922405922762308
0.3322257764245564
0.3747652501023609
0.4220350354239067
0.4759522690429967
0.5340727139644841
0.5984934201943187
0.6706122973119683
0.7427943556849873
0.816584904711957
0.8971841844700689
0.9885307720992434
1.1066001754539607
1.2640117820756986
1.4221613477761152
0.1891491526800893
0.1997200105161499
0.2286511569919667
0.2604207517054562
0.2963797017799572
0.3380108439491032
0.3812373159292319
0.4302942395288864
0.4881905743151869
0.5520704669861137
0.625054321911524
0.7026460710377721
0.7832551802570702
0.8692421813529206
0.9620077092910806
1.0753208840896775
1.2318622102791787
1.4293341850507677
1.5573278666722503
0.1886261725111971
0.200444857719041
0.2313624328450661
0.2639360958696315
0.3002801039660899
0.3433713801142324
0.3885142366025761
0.4387871902875072
0.4993229909563073
0.5693582616943857
0.6508701858672126
0.7364987543375074
0.8262583652670902
0.9218033724378928
1.034160636701195
1.1770601087665131
1.3759247968465154
1.6008355346846228
1.6649022514071703
0.1889716596071868
0.2016385237069057
0.2327681769175527
0.2656393487328689
0.3031761496040365
0.3475198258969116
0.3942732187029201
0.4459206393287135
0.5109842340282609
0.5869886806645584
0.6759061224464707
0.7728094941402277
0.8708007034886812
0.974239019389852
1.109623056063714
1.2939746518168578
1.535968637311826
1.762144926516449
1.6863430416573586
0.18945641835584
0.2029612647903467
0.2344058899208254
0.2673485892829183
0.3060530546442927
0.3521349168388716
0.4003469635998632
0.4534871497872815
0.5240715388612008
0.6063033954612035
0.7007499897806685
0.8047148089346366
0.9111929666675336
1.0320839238490782
1.19053058379757
1.4198478675400157
1.7001523652130914
1.8994209608024084
1.586644545803673
0.1899857003666412
0.2045739474390249
0.2366425458266422
0.2691949914178358
0.3083125568286401
0.3552443171812161
0.4055867175195484
0.4624718614205366
0.5377199812631934
0.6271109260859662
0.7272322662194554
0.8353744496904141
0.9506393332889288
1.091404337652769
1.2855846337061188
1.558033921581732
1.8616964832836376
1.9529999503817543
1.4631482507018618
0.1904811127392429
0.2055536141817789
0.238715218190112
0.2706766235234175
0.3100324396565105
0.3577197355095212
0.4089718685121892
0.4696356952021002
0.5488547081984608
0.6433735935785867
0.7504198034411012
0.8690396155049648
0.9966183204582164
1.1559183728063456
1.3883104952716006
1.702869311303786
2.0110592435259704
1.9369890654836464
1.3430405917715973
0.1911010191201024
0.2062593369218736
0.2393243718776542
0.2714812192445371
0.3115649605506431
0.359687549151471
0.4117755844629333
0.4757107613230975
0.5581701482129603
0.6571773817402291
0.7728191674214007
0.9018476659434018
1.0421316767243043
1.2310532841096813
1.4953325275697256
1.8401475809949237
2.1228679126268557
1.9031458581122829
1.2050204504694273
0.1919758760254167
0.2075230702391931
0.2397012735820648
0.2721970476189903
0.3129038984648207
0.3606195355767684
0.4150384865938182
0.4823279023563039
0.567793424220836
0.6735228629916507
0.7956378867149723
0.9316930912304652
1.0866210633001472
1.303227050991942
1.6004261980708707
1.9704949075420428
2.1623321257987658
1.814566340097372
1.0983588988390638
0.1926017563935372
0.2085706131492362
0.2407746518412974
0.2736432363777821
0.3138231159861773
0.3616547680065866
0.4195825429443139
0.4904653588403848
0.578922398605446
0.690084861006611
0.8172100317830463
0.9593849292470578
1.130209880400143
1.3680470702000391
1.702787876409819
2.085034059423799
2.176417522879136
1.7124739270741445
1.0087317935867848
0.1936816186515028
0.2092036499475339
0.2414751992468456
0.2750831515680401
0.3144042257758254
0.363180395082246
0.4234298896181723
0.4962759820652197
0.5884471835823697
0.7067014338846316
0.8405453588306878
0.9861848781998696
1.1704659504258303
1.4336448746240174
1.813103458874642
2.193896744034674
2.214699669337761
1.644196663538528
0.9313790205970164
0.1950204388923521
0.2096998293972093
0.2408716309982103
0.2750923349956892
0.3144646329621756
0.364163686072264
0.4255326121464605
0.4999230308165777
0.5964972102155254
0.7205461669268871
0.8593103668301034
1.014667956851833
1.222341199697841
1.5051573007533878
1.9123259771936376
2.276916985354392
2.2192752432408454
1.580820013280734
0.8806471206135403
0.1962391632655697
0.2103055074702253
0.240678296072005
0.2750722319129619
0.3149645669356395
0.3654849111378289
0.4272400585652186
0.5045147190727243
0.605876890685411
0.7310469655725198
0.8730314775950674
1.0438608487731733
1.269081362167484
1.574108175758262
1.997251080333476
2.2758302062706885
2.1366780676108155
1.5150328503943653
0.8490973150887862
0.196948254654774
0.2107943634664798
0.241386057701678
0.2755884304382055
0.3159721007971249
0.3677040157830299
0.4297986632220616
0.5102636967539235
0.6155072218623117
0.7424650985290038
0.8890023884325361
1.0713734965695851
1.3025065663089253
1.6347512478509316
2.073053407148875
2.2616660802744364
2.049740978673294
1.456134898952252
0.8263969627092183
0.1973676445575165
0.2111017796698397
0.2418250642540632
0.2762737693757289
0.3171773941042464
0.3692332997205329
0.4328813181504081
0.5166817529291655
0.6244162512064826
0.754212377883536
0.90516624536104
1.094903740051155
1.336870411514477
1.7063880969005951
2.143998876351316
2.287761411808895
2.026637693343732
1.4070149292648682
0.7998120431800363
0.1980611283271168
0.2114841529207228
0.2424205317300211
0.2771611320859704
0.3179897803199109
0.3689413317790181
0.4340583722022992
0.5213825271942438
0.6316972315116064
0.7654495809209316
0.9212647994200182
1.1175181037462247
1.3682108611266142
1.7661595656896447
2.211372162969411
2.326594873340996
2.025977746331836
1.3714215636684095
0.7704542991396417
0.1991815481539613
0.2123243647202999
0.242861247578241
0.2772004386391407
0.3179916658071244
0.3686955982047791
0.4339595620797745
0.5239090376146686
0.6372788970596092
0.7764853668583473
0.938966552540201
1.139534960048162
1.396029683912146
1.808539586635304
2.269523262232953
2.366371270760252
2.029468673792882
1.349484208195103
0.7517669755078972
0.2005757281050536
0.2136189554990853
0.2431099117187778
0.2766144147215454
0.3175832582935411
0.369172727294181
0.4346907631562609
0.5255037536132342
0.6419740853672238
0.785027337393793
0.95243107094823
1.157716619562861
1.4253584220157494
1.8517785997973215
2.3113757415103597
2.3865122452601244
2.024979156353252
1.3314389736159655
0.7389701771094431
0.2016075573697432
0.2143119310772661
0.2431535524710277
0.2760003545958249
0.3170201166996064
0.3692963093088867
0.4351212429757342
0.5269883103688363
0.6469185933418419
0.7911342525364097
0.9619687959656856
1.1737345134610846
1.452487650507141
1.88349790647435
2.34246130012166
2.4041996063220448
2.0141077691092644
1.310091841838943
0.7246637795076968
0.202201235436181
0.2145060603275672
0.2432348488119051
0.2754749366861242
0.3169402330076376
0.3703095919839054
0.4370564072415833
0.5296161686095634
0.6518491281487844
0.7973667816962446
0.9709141602981962
1.1891521926443966
1.476220437948575
1.912008755615271
2.368404032631046
2.412474711923858
2.011152837533264
1.3024834909702734
0.7130696010064653
0.2030295686795087
0.2150537900349631
0.2432013272841398
0.2750645331310472
0.3164490410299169
0.3702800162693179
0.4393818747644343
0.5326561115569305
0.6566984450392956
0.802910347706652
0.9790079932519312
1.2032406104806097
1.5040700179426685
1.9439807675717584
2.379951635301079
2.4122422303877835
2.002122728164151
1.2970635255822394
0.706044617886808
0.2043096075323256
0.2156301309906293
0.2429044806355044
0.2750593651594789
0.3162047108765507
0.3692622414160879
0.4392982996588924
0.5336153409290699
0.6606247256484972
0.8075716561242406
0.9853415237525476
1.2142591482126877
1.5320127844543805
1.9805358470804564
2.3848834601651645
2.402633733766422
1.9824357795660963
1.2825827115812267
0.702117787302321
0.2055475635413285
0.2161625381644262
0.2430056367386512
0.2751540803958511
0.3162720348209202
0.3692277824577397
0.4388025331580876
0.5330345392277943
0.6616521124837953
0.8095260174222779
0.9887448527210354
1.2212879064176625
1.547447623103325
2.008181717793814
2.392399060416391
2.3857259198830456
1.9688570331654691
1.274069977927854
0.7004693554485254
0.2068078246966871
0.2167418781930275
0.2431219529352269
0.2750498197726146
0.3161143954731114
0.3694573021956534
0.4387853410213552
0.533221912566999
0.6633557857973275
0.8134659365654778
0.9927782830927436
1.2298881272798767
1.5607993034408068
2.022501066875426
2.39139000161036
2.364523125207333
1.9509217175429072
1.263787025998538
0.6995765489093201
0.2079485432004666
0.2175074752092102
0.2434130381649906
0.274924674665236
0.3156403398298958
0.3694781026120576
0.4395157106103888
0.5345127775404956
0.6663915327051539
0.8208034251327152
0.9995941715981642
1.2387198883371342
1.5724516567366458
2.027623549181276
2.3885429319921925
2.3527339457200718
1.9314374730011548
1.2479220969039475
0.6956967966450335
0.2091907288598976
0.2184992277266025
0.2437476718768391
0.2747702238742544
0.3157341859861555
0.3700904459533305
0.4405262847734883
0.5347896308822677
0.6658570978413171
0.8240485872523852
1.0048488700960263
1.2422793870076736
1.5731499431991742
2.0343744271640194
2.399951937333038
2.3496958428333365
1.9151144012973411
1.2339644096452866
0.6876838040659953
0.2106220354998407
0.2189472253761853
0.2432440901513899
0.2741394868416671
0.3160189572778206
0.3705379451287151
0.440307094210336
0.5342267373602098
0.6666425802195
0.8281016733717801
1.0096499294180967
1.24778396645443
1.5772808386947592
2.042322160714805
2.395382472931741
2.329518994634274
1.898885159568086
1.2252272613916355
0.6834767715258593
0.1853850215790289
0.1842147966524183
0.1838222567042341
0.1859134514977423
0.1898778369750212
0.1942083675869491
0.1987686648027209
0.2036686273577963
0.2095180931783791
0.2153847979615498
0.2217648561899659
0.2289873974789771
0.236016322977219
0.2432014429183967
0.2504212874836503
0.2574429530608818
0.2652494725589556
0.2726511641848551
0.2785806545684248
0.1890441556450491
0.1892038722077508
0.1894175614006409
0.1926046631002077
0.1968497467067557
0.201150173963473
0.2055526107470756
0.2101041507863121
0.2151084814606427
0.2207198118465231
0.2273048237886337
0.2352772900907776
0.2429980474756082
0.2510999976013952
0.2596937335293455
0.2670534142938069
0.274491079160272
0.2819441778241232
0.2883917407367818
0.1960834245575128
0.1976697588323297
0.1989328232714649
0.2033875841465192
0.207733530727026
0.2116876173516915
0.2164758682181571
0.221969958204962
0.2278886937738604
0.2355247480694056
0.244610829469385
0.2549093040233181
0.2652902332030551
0.2749401393836462
0.2840950339251555
0.291653035659286
0.2974878799132546
0.3022589874158891
0.3061081869931312
0.2072399361888995
0.2095629285342599
0.2108501817278426
0.2152778905942785
0.2199348035609791
0.2251738361442229
0.2316330101490659
0.2395227882171274
0.2480238662799227
0.2579428872118175
0.2689548459625406
0.2794480488438765
0.2894542042074423
0.2980235833766138
0.3043036204618439
0.3086156656435541
0.311525902682943
0.3140976990559045
0.3164916313552446
0.219416771541772
0.2218502269746374
0.2231451023040679
0.2281840508115794
0.2345542993813605
0.2423329033672479
0.2519456567118509
0.2625637028179574
0.2727245014761144
0.2830252517005943
0.2931410556091311
0.3011691165349034
0.3079415939798287
0.3137494740693549
0.317740019158544
0.3206661352603848
0.3230408230294038
0.3251577976670285
0.3272643237336086
0.2302923059801165
0.2341049120792241
0.2368973432808819
0.2436309401514927
0.2524839131624956
0.2625869159793298
0.2737595807674282
0.2847549641083934
0.2943794540419088
0.3023439722104878
0.3090871367186953
0.3146670742886886
0.3195966101334649
0.3239084735347241
0.3276341204484759
0.3311449549119516
0.3342275263944176
0.3377231507023526
0.3419041851039117
0.2434136869786815
0.2477931722757623
0.2516105146114523
0.2601271814678845
0.2706538739493289
0.2811083936399803
0.2912733026172477
0.3002546868710229
0.3072560341249924
0.3125539336303571
0.3173583501592097
0.3229695835439359
0.3288091770536379
0.33419391566534
0.3396382794388516
0.3454798510066239
0.3516089474239925
0.3587343026833011
0.3666886674959805
0.2573211763663994
0.2607845064327683
0.2663571726585209
0.2764829459960408
0.2860945176624332
0.2945871402772881
0.3029897270533533
0.3093269408479161
0.313459690673874
0.3180906860883219
0.3239893405953121
0.3316766123919571
0.3401536612808017
0.3487078822592689
0.35768335136707
0.3675328369909761
0.3782414205670222
0.3899978763846111
0.4026626864045279
0.2707718849716801
0.2740423158360574
0.2801769378224486
0.2901412116587619
0.2977591224856142
0.3040252097653024
0.3096668012970071
0.3138023824637746
0.3177437212352227
0.3234370008166315
0.3320226304909824
0.3434591393728027
0.3559171816254261
0.3688975426568939
0.3826462158611231
0.397343353536372
0.4129854360806335
0.4298650521444965
0.4477497343010195
0.2819856753993984
0.285653432440774
0.2918573768567319
0.299692993218968
0.3047010432579875
0.3088985025591187
0.3124877241684053
0.3160304895790222
0.3215961897006292
0.330507776834168
0.3431774845791624
0.3591348251116907
0.376521321933138
0.3947191701096936
0.4139586115182735
0.4339592682532798
0.455708937997612
0.4784584092859717
0.5015781177255226
0.2914495800151341
0.2956904686474967
0.3004590677910982
0.3055863292018961
0.3084873769897284
0.3106420841001852
0.3129144790145546
0.3175706685119563
0.3258583382967346
0.3389134188544505
0.3569974698667391
0.3787546923066338
0.4019193094199209
0.4261800038360327
0.4515934096082111
0.4773829566931318
0.5050941493725979
0.5340918122905767
0.563568405968355
0.3011430405577813
0.3038102056958457
0.3059619865477366
0.3080489696275801
0.3086227907439094
0.3097016933871888
0.3126283830569203
0.320024013726005
0.3324542152595026
0.3505127008862783
0.3751855792706628
0.4029873078156464
0.431475018256907
0.4619048734768613
0.4937503650672732
0.5263490720771566
0.560815441193646
0.597115519638661
0.634793068282161
0.3088367114587994
0.3087835575761263
0.3086151784742446
0.3079184287267635
0.3067222679551654
0.3078976785674007
0.3127561739892281
0.3234309803669651
0.3415713100678051
0.365611881818007
0.3958827247091069
0.430485179513955
0.4650989254846169
0.5011156173012207
0.5398994165936397
0.5805516366316611
0.623515293168688
0.6691189917767447
0.7168560264168153
0.3140114787707712
0.31128077769966
0.3087297466769368
0.3062086181437466
0.3045910122248104
0.3064255422692463
0.3139974854246581
0.3293009075738574
0.3528658042490833
0.3827262494866378
0.4185315705371594
0.4592985808317514
0.5015439888153939
0.5438127477191665
0.5904802531065735
0.6416349109819015
0.6936591278343359
0.7486408201596554
0.8087622977325589
0.3179942566626819
0.3119327498583894
0.3066830800195911
0.3031433965556611
0.3016304998891403
0.304848314357
0.3165264889118592
0.3364989692957883
0.3645923874939581
0.4009399011208572
0.4432131184334619
0.4893170981450887
0.5392874434733268
0.5911822181808111
0.6458256488580902
0.7067483323594498
0.7698898972341096
0.8379906284225008
0.9236897331223644
0.3202765210462486
0.3113231882410892
0.3036560372161828
0.2990099166271001
0.2984539410116435
0.3047002727021302
0.3201777024231643
0.3442995479738524
0.3771383802955665
0.4199786197492073
0.4682980178273991
0.5218019681332665
0.5801293571929905
0.6420059303627621
0.7056071813881669
0.773625595729936
0.850969336800937
0.9452176597177468
1.069599490182326
0.3195036898710817
0.3084306546161255
0.3000091821993928
0.2947641487403944
0.2957308241186061
0.3053140255259154
0.3247037643168828
0.3539094346332014
0.3921602011196599
0.4399058577963182
0.494370872089052
0.5565138977343639
0.6227548193166426
0.6928895504449722
0.7671241661670591
0.8469888304403814
0.9436859548951448
1.0753315767710234
1.2316091642340072
0.3163745434684257
0.3034519137474255
0.2950073680324445
0.2904194580117517
0.2934571847492739
0.3065984653643895
0.3303846212246563
0.3641824328052272
0.4082470079090646
0.4604467672889183
0.5220190221326092
0.5931035288447118
0.6678082629583124
0.7471026553740276
0.8311921393354146
0.9287686130041612
1.056099918289908
1.2334445527508315
1.3906855914808125
0.311952625348302
0.2983293546199611
0.289481421011355
0.2864479923372204
0.2919351885605322
0.3082019581013075
0.3362924691545684
0.3748460798205864
0.4237953867286844
0.4811970080678667
0.5502415631495072
0.6290743344771422
0.7138688256514851
0.802647457560997
0.8981142594585376
1.0213735952172622
1.1899440545592594
1.4000858338818265
1.5029349396504108
0.3073835921231596
0.2936126010152967
0.2847598550416423
0.2833199816183945
0.2912907648667884
0.3103416752090635
0.3413257270761642
0.3846245895042882
0.4387700988543547
0.5024485447181815
0.5801986509723916
0.6673232835136113
0.7610261688068536
0.8605443340588168
0.971840498017918
1.1245761757050814
1.3416810791744378
1.5531093386721588
1.5646517243226707
0.3026610396094899
0.2883903652802029
0.2801810261784486
0.2807126381769482
0.2913717643058685
0.3132834371410495
0.3478906964905586
0.3947990001903371
0.4526188967643223
0.5226291852306171
0.6094836340774296
0.7074175600237966
0.8088642078948457
0.921594875645684
1.0566486858480386
1.2439353266582385
1.4988188418130264
1.6928454235580002
1.570023841913382
0.2968654308683415
0.2823291479941173
0.2757715076896469
0.278408766540445
0.2914780548078998
0.3162422708947258
0.3548859819020819
0.4054981770918043
0.4676060437228949
0.5435038598380252
0.6372625808849991
0.7444144662827334
0.8554664621890603
0.9820521965523406
1.1415228758822833
1.37705367417868
1.6673247684599677
1.82856177797944
1.469581175865969
0.291537104979959
0.2769254318105043
0.271970765270092
0.2762213002132123
0.2912867174800235
0.3194488802677013
0.361567696942589
0.4156647722075646
0.4841859361788579
0.5672107609929132
0.6673844494753917
0.7833693261356066
0.9068082887144168
1.048260162548712
1.2420495060479655
1.5267774198514767
1.8273367940524452
1.8575657011247604
1.3353345751109988
0.2856384446039358
0.2715361978813143
0.268196268290403
0.2744018582867431
0.2921693675064108
0.3231626598714517
0.3680896841984969
0.4250936242869921
0.4985044533692471
0.5897165269716087
0.6969308093558976
0.8213303440984733
0.9578743465125572
1.1186083921814465
1.3524520550560348
1.676857282974158
1.9528175428201304
1.8115028802330209
1.2282950067338805
0.2784721612669483
0.2655925511826388
0.2647105207310381
0.2733247019689526
0.2937647725386866
0.3266279363470746
0.3730735871645279
0.4338600591848447
0.5118057059906155
0.6104559991694044
0.727059121263516
0.8593600214186934
1.0075167306742925
1.1970850499073191
1.4664037545011055
1.805420640801038
2.0373425177572884
1.7879915735059326
1.1240867544817517
0.2720210675037059
0.2605443753259333
0.2619215191147532
0.2728915319963242
0.2948352218448851
0.3302195666714744
0.3791878280322295
0.4432823025868576
0.526431757548305
0.6311591513976018
0.7548762889103269
0.8962912644206951
1.053447107860804
1.2698924001129397
1.5765018134968036
1.9192844353941356
2.04772884909711
1.6971566173493136
1.0255521846585949
0.2662579799114228
0.2561226709903597
0.2592568635231693
0.2722759755767325
0.2959751600260652
0.3337988172680432
0.3863506032083275
0.4527249938735723
0.539623281454099
0.6489851287743769
0.780822229739631
0.9332091360390528
1.1018984122651774
1.3366611561018231
1.6744151998501862
2.0262617004885644
2.06446042480476
1.607817868208557
0.9397931220976672
0.2607088977660166
0.2518866450947393
0.2565131074581253
0.2715130933317384
0.2975434051549818
0.3370139894427812
0.3913077555846002
0.4597381707533381
0.5503103910313488
0.6656612839003149
0.8071783467966241
0.9670621181370218
1.1535433032432962
1.413632021129669
1.7821732196682278
2.1416896968071164
2.1156689208885866
1.5649307059726074
0.8844009079067285
0.2558910479024197
0.2479883842471327
0.2545334908266896
0.2710177818540404
0.2986949877438999
0.3395694805491074
0.3949788830152755
0.4670782699647973
0.5621378215507091
0.6841190744624079
0.82974253369561
0.9959022915624876
1.203490452172154
1.4862977165037143
1.8722692624583737
2.205701097488987
2.116783329867003
1.51785581234481
0.8479831997970451
0.251240713655856
0.2441340337271443
0.2527848768062413
0.2706279493100371
0.2995137630466571
0.3420788438811779
0.3997532557865369
0.4761334182275863
0.5734502522430504
0.6993652769110149
0.8514675292537499
1.0298795157710865
1.256197968944036
1.5477938381606582
1.9459770204322169
2.2114322039417047
2.039680252913087
1.443655790397527
0.8103149064540226
0.2462876066309688
0.2408309030186226
0.250942902390014
0.2699844129580718
0.3001341879752709
0.3444147917589542
0.4043665292893857
0.484953731814652
0.5844729330554065
0.7126862573373427
0.8712223484417704
1.058876570634546
1.292786297628009
1.6024845649746198
2.0278840506174025
2.221610037112548
1.9640399920799327
1.3725986752737558
0.7770828334442262
0.2413089235780822
0.2374262117267772
0.2492125743912661
0.2695218955551572
0.3014445785647894
0.3472084637301047
0.4088999179150112
0.4927437920237095
0.5968377720720577
0.7295155711944511
0.8911827789914042
1.08374982328124
1.3238864567904474
1.662110744122826
2.105581328532154
2.2557976021968167
1.9483420313325317
1.32906212352668
0.7491187428854613
0.2363002346324818
0.234153718807028
0.2483172375614426
0.2694752951095474
0.3032384438645714
0.350474988650833
0.4133076142423251
0.4981395997797532
0.6058759342952619
0.7446781741081241
0.911843607121058
1.1106798058715637
1.3616639266058426
1.7254250903932205
2.1706179589675534
2.2992712076426955
1.953683173957908
1.2992531987594975
0.7362962202282051
0.2324189934573857
0.2319315728324948
0.2478275407481728
0.2697710212179144
0.3047213512874875
0.353105205478128
0.417274225389985
0.5027773278109678
0.613149111557676
0.7546081831794567
0.9241334406162158
1.1319125295799362
1.3918006410312058
1.7772350716029457
2.2177188530682024
2.3240453288850063
1.9614393747848795
1.278390845208207
0.7220394390936097
0.2293707717617914
0.2298743538953478
0.246928165479005
0.2705207585486998
0.3066107523019662
0.3561530132829903
0.4205598590302277
0.5070086756241494
0.6229462932678982
0.7666093972502055
0.937008241710223
1.1522302806748022
1.41398642659655
1.8133015606688985
2.2556771343898525
2.3492641242157144
1.9697267501534328
1.2609626996430034
0.7047442190209265
0.2267380908828512
0.2277587423062338
0.2460870205681667
0.2713276445437942
0.3082157736283421
0.3587716228025372
0.4234653774840616
0.5119830391473502
0.6323134360501769
0.7780224679685134
0.953165851115037
1.1700708948353111
1.4314201212158242
1.8482238316614437
2.3033421713963658
2.376566039459567
1.9631966047324143
1.249816027250063
0.6989724624562482
0.2246515838366491
0.2260841949971242
0.2454778251619628
0.2715276990826175
0.3084361630014994
0.3604312143073492
0.426450511525892
0.5169522043518548
0.6396277185238611
0.7857319823673523
0.9622291637234284
1.1836308875466313
1.4549749247824109
1.883259910258512
2.338687306633401
2.3926287202309315
1.9599973949206435
1.2484017511997554
0.6994886672971878
0.2222353749607764
0.2249256587525391
0.2450432913617775
0.2715819847789736
0.3087857259328148
0.3621069189454179