/*--------------------------------*- C++ -*----------------------------------*\
| =========                 |                                                 |
| \\      /  F ield         | OpenFOAM: The Open Source CFD Toolbox           |
|  \\    /   O peration     | Version:  2112                                  |
|   \\  /    A nd           | Website:  www.openfoam.com                      |
|    \\/     M anipulation  |                                                 |
\*---------------------------------------------------------------------------*/
FoamFile
{
    version     2.0;
    format      ascii;
    arch        "LSB;label=32;scalar=64";
    class       volSymmTensorField;
    location    "0.0029";
    object      tauij_LES;
}
// * * * * * * * * * * * * * * * * * * * * * * * * * * * * * * * * * * * * * // 
 
dimensions      [0 2 -2 0 0 0 0];
 
internalField   nonuniform List<symmTensor> 
13597
(
( 0.1990108056819796 0.0649164816689589 -0.0112693513757566 0.140875392137238 0.0594125688270448 0.1712890113327569 )
( 0.2043323790362684 0.0671391875236683 -0.0126948373500176 0.1456986752912564 0.0597083015813236 0.1653108369394197 )
( 0.2138532658588453 0.0708131982852673 -0.0149542276610768 0.1541722000591122 0.0617886591132664 0.1569822754153818 )
( 0.2263045622365476 0.0754398590191733 -0.0167688541197664 0.1655387494410815 0.0656277530927545 0.1516792314313609 )
( 0.2368010253713592 0.0800699583386619 -0.01831510181671 0.1751235376592816 0.0686984607656538 0.149253484160787 )
( 0.2455236431673991 0.0844136018822085 -0.0194345686917531 0.1825736096431496 0.0704791299781544 0.1473258293922791 )
( 0.254071752099841 0.0885042957316927 -0.0204636617643189 0.1884684342223405 0.0718174833321656 0.1457976518063058 )
( 0.2621471463949756 0.0928117987271111 -0.021921211809862 0.19242207404416 0.0726200484311911 0.1434242790864088 )
( 0.2703529028636667 0.0972712635030772 -0.0230971422237383 0.1952842636453106 0.0732075496592642 0.1408686605607093 )
( 0.2781267328751135 0.1011784282956045 -0.0245374325288731 0.1964964204982263 0.0729204000128308 0.1373513419022015 )
( 0.2857640655392106 0.1051327779276045 -0.0257219553080124 0.1963069225810615 0.0714182423542203 0.1324998217605097 )
( 0.2935519889842992 0.109066515815438 -0.0264794577813628 0.1949016959739303 0.069227814730049 0.1274406512497025 )
( 0.3000808158133572 0.1125074376629601 -0.0273626534276029 0.1918228656680239 0.0663559297008641 0.1213918340803296 )
( 0.306137269037231 0.1160277255898303 -0.0279997137254184 0.1882500779567138 0.0627160896718821 0.1145879452526448 )
( 0.3122306644824204 0.1193976357946829 -0.0283675273575688 0.1848570951048909 0.0586119663614607 0.1080518411281563 )
( 0.3181720247176376 0.1227547914512395 -0.0285545887021486 0.1812851387757491 0.0540501942212283 0.1015136378336236 )
( 0.323325663162354 0.1256441778392228 -0.0286150671380103 0.177037007364371 0.048848897805622 0.0949272397035383 )
( 0.3266126531520884 0.1276578077609942 -0.0281135966415703 0.1722763723534802 0.0438722665059635 0.0883761049498852 )
( 0.3304377801516009 0.1299833729189444 -0.0274206556453579 0.1679115478018678 0.0390686514044167 0.0818142434598323 )
( 0.2112487037388222 0.0772362013332212 -0.0156821034392444 0.1555048787777407 0.0468289392081122 0.1571708972346794 )
( 0.2181886024208952 0.0810291554982957 -0.0178260193725396 0.1619498912615333 0.0458477929118524 0.1497803964024199 )
( 0.2292888109868429 0.0856514958928432 -0.0197992260534419 0.1736664102471297 0.0471658517560475 0.1390245441387328 )
( 0.2428393523213523 0.0910625927759728 -0.0192201165488736 0.1883260097240106 0.0496956811034435 0.1326854737439204 )
( 0.252089243544241 0.095148213047965 -0.0190067810104709 0.1986468075566648 0.0508562638175891 0.1292032459651294 )
( 0.2593554248972599 0.0985136032840071 -0.0181983753801053 0.206916031594168 0.0512637060670097 0.1263068164522028 )
( 0.2650338880425955 0.1013492301947459 -0.0172680805267682 0.2133232724154164 0.0512033345046422 0.1239394115744003 )
( 0.2699752891061503 0.1034824011690433 -0.0167034686253091 0.2180255751489662 0.0501259713929452 0.1215681530917165 )
( 0.2753197166767216 0.1054604581865765 -0.0155832399121468 0.2212352411153091 0.0486174342024084 0.1191906387924348 )
( 0.2786580129303507 0.10676964885388 -0.0148773516901012 0.2228379501950879 0.0460891227222339 0.1161495316383424 )
( 0.280067797878001 0.107569554877277 -0.0144966127640128 0.223610184041185 0.042184442595645 0.1126642245970545 )
( 0.2805832864778175 0.1083664520085148 -0.0142482320833666 0.224030882479135 0.0370773338808317 0.1089877283632977 )
( 0.2789305579388506 0.1084735953545961 -0.0143530760059658 0.2235886122088131 0.0314496587167696 0.1052836978275849 )
( 0.276399178704199 0.1086627099566388 -0.0147345879095257 0.222774045079844 0.0258005535618761 0.1019316608379898 )
( 0.2741425856481946 0.109650786554803 -0.0148740025312197 0.2224555660276559 0.0201730361407827 0.0988602997776277 )
( 0.2714479563520163 0.1109669661624793 -0.0150604726136654 0.2220991368419592 0.0148790685581202 0.0957532816508969 )
( 0.2686623903653354 0.1120797717870574 -0.0152140587615864 0.2214713740916553 0.0101771934405106 0.0929819566386614 )
( 0.2651002976866292 0.1127099433009492 -0.0150696036575048 0.2203815462684456 0.0062573473006354 0.0907067888084719 )
( 0.2624007088721665 0.1142754410326414 -0.0144954921436707 0.2190998358617191 0.0033519342397269 0.0887814958844931 )
( 0.2218826728402273 0.0881733450621923 -0.0190668951600872 0.1673855664739592 0.0369448551248704 0.1500623997797479 )
( 0.2291363900220842 0.0916490429332617 -0.0204769648136557 0.1751292392353881 0.0354066641293224 0.1422015635190125 )
( 0.2393271447104326 0.0948697705847092 -0.0192966758071747 0.1883992938797277 0.0360484042465122 0.1303556310416927 )
( 0.2489034309804059 0.0973526653903051 -0.0155027586517117 0.2029346165376739 0.0373871269479977 0.1239555176144847 )
( 0.2528782015962085 0.0974040122054705 -0.0135767270720093 0.2114512766567593 0.0368819471353997 0.1214461784008402 )
( 0.2549809560637513 0.0963423250486703 -0.0114368387913708 0.2182160367642105 0.0357088857288415 0.1205836895553618 )
( 0.2541745015410429 0.0944200646155056 -0.0098195898580139 0.2233325870983278 0.0332072828517297 0.1197622898140187 )
( 0.2508744220608837 0.0916005705688568 -0.0089481771510608 0.2272674803391498 0.0289483796255804 0.1195222603067464 )
( 0.2474106492852093 0.0886017503636451 -0.0084707277074749 0.2305161729721859 0.0237865090238674 0.1199212269789558 )
( 0.2423208423294864 0.0857591211578831 -0.0087610349598983 0.2335500505274535 0.0174857024055112 0.1199486856193638 )
( 0.2345730404350719 0.0830079737326937 -0.0099231735129988 0.2364410286954951 0.0102573278670393 0.1203058554123931 )
( 0.2269213381420443 0.0809775472292581 -0.0111926864256499 0.2401705873401248 0.0023742485093388 0.1209183828589479 )
( 0.2194635400779617 0.0796717276962932 -0.0127624785105498 0.244476090964139 -0.0052449563742872 0.1217190410536998 )
( 0.2124525753054638 0.0795392475900505 -0.0145681968403258 0.2488205873476296 -0.0116434046337215 0.1225320629454132 )
( 0.2073627007261274 0.0807777390521415 -0.015548653536937 0.2529663528558939 -0.016538363066124 0.123178074530249 )
( 0.203437223468775 0.0826402363117662 -0.0156825217003002 0.2566941487153576 -0.0198773065496559 0.1238232767550551 )
( 0.200299065502576 0.0847744045654094 -0.0153060693272523 0.2598595172079297 -0.0220829717062795 0.1249078019967055 )
( 0.198117152016053 0.0873179299595109 -0.0144259597117291 0.2620039995040739 -0.0231249314806251 0.1264146660147475 )
( 0.1971126308149436 0.0908555411781348 -0.0128651263128172 0.2632634760786693 -0.0229034395208221 0.1277631420964778 )
( 0.2294924502902243 0.0947766489609628 -0.02160658226619 0.1754693002282672 0.0293401422095496 0.1474004025872016 )
( 0.2352214029165296 0.0958631281784785 -0.0221775443461383 0.1833676815733838 0.0276623105629317 0.1394358279709206 )
( 0.2413583125033405 0.0942767379949531 -0.0192286528258128 0.1953614803162694 0.0275459248953536 0.1290362223018242 )
( 0.2434254664967932 0.0900440983327447 -0.0144942950772954 0.2065430362704815 0.0272094557661731 0.1253651731013036 )
( 0.2393311170100213 0.0840378837990747 -0.0120130611534075 0.2127229090677356 0.0246667700080072 0.1257967467884523 )
( 0.2329152501326408 0.0773154565990527 -0.010082370856842 0.2178390653518843 0.021114656105488 0.1278667554863744 )
( 0.224918489507656 0.0702036839060913 -0.009257233077432 0.2222357968214884 0.0156959486385168 0.1305286226282874 )
( 0.2154187779496832 0.0638475134506299 -0.0088961176280502 0.2269059173546757 0.0085235543063974 0.1337659916675109 )
( 0.2061411306871363 0.0591839687580204 -0.0094424531142498 0.2326281249071329 0.000773936324051 0.1373987001386423 )
( 0.1978539805241364 0.0560280397173246 -0.0103387259535299 0.240004392161885 -0.007841700536446 0.1408961606890947 )
( 0.1894922850611788 0.0544455400396231 -0.0114098332383847 0.2484443122727613 -0.0166068777101707 0.1439788573737556 )
( 0.1830300002524905 0.0554216175139218 -0.0120060829503534 0.2581965905135315 -0.0239306800020972 0.1467390225267008 )
( 0.1794500569733413 0.0587593695658381 -0.0118487712458546 0.2677085359793407 -0.0295784412210378 0.1487814615527152 )
( 0.1782025701873515 0.0637972351811816 -0.0105931060527648 0.2772764146722459 -0.0333288152752996 0.1513581144103877 )
( 0.1787345981374847 0.0693189836682394 -0.0079365656314933 0.2856064157385509 -0.0350030018074987 0.1541066752046937 )
( 0.1802399495621263 0.0751174753500259 -0.0050336654038671 0.2919787929842817 -0.0356717637814267 0.1565664420219528 )
( 0.1823737829415754 0.0810691942130442 -0.0018313002608061 0.2971056924790355 -0.0354387781080739 0.159373220107059 )
( 0.1856121928449555 0.0873852272915934 0.001750444827903 0.3011884392566388 -0.0344057303723889 0.1626433843446752 )
( 0.1895417381998325 0.0945648036461197 0.0053704561334772 0.3039762944794433 -0.032788117586452 0.1661667567437668 )
( 0.2327562042463745 0.0954880546275442 -0.0256566444259055 0.1803068780219872 0.0235442335767841 0.1480525794012762 )
( 0.2341762520555827 0.091916188355932 -0.0250944389426612 0.1859506653886491 0.0222431661391624 0.1411550709255865 )
( 0.232849613747492 0.0838038422125602 -0.0206864844338944 0.1949818498308886 0.0214209601263503 0.1337421428785321 )
( 0.2264689235485063 0.0734060106333091 -0.0150638892670542 0.2032326760157878 0.0190366409181248 0.1334407314994334 )
( 0.2156667402804376 0.0631134100827606 -0.0116966926545081 0.2076090741695742 0.0147792064342026 0.1366959889035484 )
( 0.2051064536132748 0.0538214644518891 -0.0091549311571064 0.2125009082116746 0.0089573456111101 0.1408267093163915 )
( 0.1945044060335062 0.045818319120255 -0.0073834321120186 0.2187881702953101 0.0013396871916746 0.1459554838029721 )
( 0.1842265328842633 0.0404780551394581 -0.0060388231946831 0.2265325416619366 -0.0069292738717092 0.1514503619990907 )
( 0.1770642020366158 0.0388138365145781 -0.0052075155500979 0.2366519799470331 -0.0156173222444 0.1560005494623105 )
( 0.1726163267240925 0.0400076703387612 -0.0040141741550959 0.2497460519472016 -0.024303253128983 0.1608158813668723 )
( 0.1707589024655323 0.0444355133237854 -0.0020704959842509 0.2652621348252482 -0.0321879660096459 0.1656301110310738 )
( 0.1714509119684601 0.0523008190351703 0.0012092764440957 0.2813092774804404 -0.0376685152279819 0.1699714932119734 )
( 0.1746469994667547 0.0625632076170462 0.0054052494214178 0.2962314613334659 -0.0405093959165015 0.1739855632952322 )
( 0.1798570888881387 0.0737669243810164 0.0099712449806677 0.3095883175578602 -0.0418636352496201 0.1787789929428246 )
( 0.1854125073600173 0.0839876143558133 0.0149490498948697 0.3200443914508192 -0.0419797864082056 0.1837310472289567 )
( 0.1911177552034896 0.0942048061159047 0.019404393123128 0.328256442449711 -0.0416745716195372 0.1883836296566996 )
( 0.1970919715538385 0.1045818403646148 0.0230940616725525 0.3348457573062817 -0.0411242504120708 0.1928857579970843 )
( 0.2037268988673491 0.1147667773169754 0.0262237785679634 0.3398969999886032 -0.0404624901002723 0.1971840448815895 )
( 0.2107613126597085 0.1257039808190179 0.0284541787518515 0.3432894016602974 -0.0398378180509231 0.2015689371806405 )
( 0.2295888752066065 0.0902237879136542 -0.0292147449233596 0.1803203304412576 0.0197810756386387 0.1513541926321434 )
( 0.2248589330565289 0.0816722132352332 -0.0267853208807812 0.1831076801684805 0.018597403723787 0.1451854806546024 )
( 0.2155292240511676 0.0677923642190171 -0.0194710345605536 0.1888036523337176 0.0174438878882816 0.1404613595968289 )
( 0.2036559374574249 0.054323920671524 -0.0119415753942471 0.1950787425474121 0.0134269988540722 0.1425890513420554 )
( 0.1914426812968902 0.0438458290680516 -0.0069045248387021 0.1996253666018426 0.0078072849202658 0.1469464116096668 )
( 0.1825240500882826 0.0358141039366686 -0.0029043963945393 0.2064346602492558 0.0006190806338458 0.1522536550889724 )
( 0.1750118194426067 0.0312833948479103 0.0007407769047506 0.2163991922001742 -0.0082499239465344 0.1582768999267539 )
( 0.1691366640290701 0.0308415422861793 0.0043137027082475 0.2291547402631858 -0.0169574475212007 0.1647869987227294 )
( 0.1674393448040339 0.0350705865967863 0.0082298186047377 0.2454072586410482 -0.0254590818246464 0.1706040560817573 )
( 0.1690021322680241 0.0437762747620379 0.0125680308052396 0.2653785763489767 -0.0335430224019883 0.1769272786002907 )
( 0.1733608072759425 0.0554674460096972 0.0171155120179952 0.2866513321515278 -0.0399668144385838 0.1835239070047008 )
( 0.1797681647953684 0.0701759842074099 0.0225039401497961 0.3071732103350496 -0.0437765136901408 0.1893319149810004 )
( 0.18769618387891 0.0867961776328183 0.027639573497293 0.3261208004365414 -0.0456138451991567 0.1954330319951392 )
( 0.1961348051853622 0.1028085873847718 0.0314508325697999 0.3411892163089025 -0.0466996172460948 0.2020144238016152 )
( 0.2041482948161999 0.1176085632117352 0.0345458259800156 0.3528166806369687 -0.0476779104445093 0.2083001473372104 )
( 0.2116659885447932 0.1312582380374776 0.0366022827875886 0.3618271117996193 -0.0484145417961422 0.2139133831600112 )
( 0.2193062168835822 0.1443588071444217 0.0374679166980973 0.3688979779892599 -0.04918727022306 0.2196123533832781 )
( 0.2270314890065852 0.1571960657635507 0.0371098041700727 0.3742104823248025 -0.0500059264737397 0.2245435726911056 )
( 0.2353452464966311 0.170586446273314 0.035685384335863 0.3779497117486595 -0.0507950503920795 0.2289238198833846 )
( 0.2180545261451039 0.0802977822355222 -0.0296751844433331 0.1752112337313246 0.0171643036994465 0.1551948714693369 )
( 0.2084039764295374 0.0682553826630456 -0.0235331344281294 0.1759166926850593 0.0165359707927757 0.1492682263251492 )
( 0.1963904011153833 0.0523474339129061 -0.013359569543514 0.1803288619421975 0.0146122215198693 0.1462647740736347 )
( 0.1846809414669959 0.0390309436106092 -0.0042403306706448 0.1859140665429691 0.0091542767223325 0.149440977520769 )
( 0.1760523951718802 0.0311246365978384 0.0025889971105598 0.1924106979509053 0.0022836540061482 0.1539070736285287 )
( 0.1705286583915157 0.0273879810852823 0.0084610703672957 0.2022116032885973 -0.0060406305756805 0.1597440328362695 )
( 0.1668849950403671 0.0285008507247127 0.0142491725118571 0.2163729343769752 -0.0149501604533344 0.1663944829806305 )
( 0.1663397972987439 0.0348852021050184 0.0197966059606605 0.2355233214446602 -0.0239612464188152 0.1740212804258416 )
( 0.1695191991355285 0.0461167294842565 0.0256150753456603 0.2579242860599458 -0.0322918002125598 0.1813283763016297 )
( 0.1755128664138595 0.0614053977195296 0.0310171701115275 0.2831196432417777 -0.0392459896682525 0.1890773952063355 )
( 0.1833842221170916 0.0798517887377874 0.0351728700027349 0.3093657725767864 -0.044836129523914 0.197387097215015 )
( 0.1929154935435066 0.1005971169003367 0.0386838585052982 0.3338558871282476 -0.0488227667420876 0.2053424407618885 )
( 0.2033633672492172 0.1209543929429992 0.0409137462935697 0.3545398190412431 -0.0516129130529662 0.2137996330185565 )
( 0.2133291488422035 0.139764457788632 0.0414279173031744 0.3702341447801879 -0.0538607476743032 0.2222929684687746 )
( 0.2228346639500708 0.157513395282317 0.0410906755908493 0.3830465328872302 -0.055881864237559 0.2299254792220139 )
( 0.2317166148655711 0.1736289169414394 0.0396708794719185 0.3932687919227221 -0.0575333684360688 0.236383772399655 )
( 0.2401245555251416 0.1888136553354148 0.0373402553645973 0.4011110787741045 -0.0590878699604179 0.2424287726079858 )
( 0.2493200628932145 0.2044780199469622 0.0341458261552582 0.4075521166062855 -0.0602200478300878 0.2478526418678108 )
( 0.2594739451642309 0.2205465418711746 0.0301974583725094 0.4124923057116891 -0.0609147510428191 0.2519223381793741 )
( 0.203762853860624 0.0685319367009457 -0.0264768014271499 0.1677569793780404 0.0154641500303967 0.1581233884878336 )
( 0.1925762350902965 0.0548786160274166 -0.0162081456961027 0.1668064850858411 0.0153035514297276 0.1515365302959432 )
( 0.1819766054722597 0.0401759716063643 -0.003338342540994 0.1715153773007973 0.0121096156860812 0.1490528768548298 )
( 0.1731700875004827 0.0301619231089556 0.0072459138216369 0.1781875617513047 0.0053732641854599 0.1527210160617588 )
( 0.1683894768841967 0.0264789133025861 0.0156019895855993 0.1868635717594534 -0.002347761096364 0.1575879787150356 )
( 0.1664393801655451 0.0280900781210095 0.022942935708163 0.2007111256027257 -0.0110805154763464 0.1639580062230292 )
( 0.1666124928837117 0.0359545820023888 0.0297676650099805 0.2209546866704786 -0.0202331742912506 0.1708184976647644 )
( 0.1697090825539259 0.0486764875343906 0.0353560089647455 0.2457392907219998 -0.0293477339410034 0.18024064880646 )
( 0.1761461890761644 0.0656948244281194 0.0401098845712542 0.2733116466020382 -0.0379354298822685 0.1905095428186399 )
( 0.184359452040112 0.0865443259051804 0.0435715592235769 0.3033118123220548 -0.0450687715647657 0.2001102654813002 )
( 0.1945091134196164 0.1104796562926948 0.0454088548166575 0.3332771099105409 -0.0507289261472924 0.2112708311770436 )
( 0.2065249561763894 0.1353073232289266 0.0455389085797807 0.3601559979516345 -0.0550660548658351 0.222536384918554 )
( 0.2178601319761069 0.1577599838674844 0.0435466887256663 0.3823546928206913 -0.0589815406098494 0.2325719808058332 )
( 0.2284611306334009 0.1785553973243175 0.0404633920735916 0.4003141561656693 -0.0625397845985947 0.2417805377949157 )
( 0.2387212968774572 0.1980275717224039 0.0370656461988248 0.4144275913488225 -0.0647670521781969 0.2494458986317472 )
( 0.249070909910069 0.2166873168251663 0.0332247370398216 0.4261832027340714 -0.0660214710252855 0.2560405410752757 )
( 0.2597143448659437 0.2351626632466507 0.0290461212669442 0.4363054459920453 -0.0669279797424144 0.2617048154993925 )
( 0.272028286867209 0.2543460429266953 0.0245659867743293 0.4450448867298697 -0.0671633860268208 0.2663301898603116 )
( 0.2859882726922499 0.2738278253292979 0.0199769934556139 0.4520535631001224 -0.066760776218623 0.2686450139942221 )
( 0.1902335016171512 0.0568236936825407 -0.0186451539010409 0.1586603927259693 0.0144760921593875 0.1579318986038804 )
( 0.1801284666007197 0.0439186736046024 -0.0053317025144918 0.1567085206263112 0.0141531653661704 0.1497762288596641 )
( 0.1724312320078058 0.0322956750862596 0.0090510383666975 0.1618562218750846 0.0099925041509811 0.1479494182238925 )
( 0.167330548230876 0.0271332986636646 0.0205144906319265 0.1704830953352234 0.0024728137756879 0.1523057298507429 )
( 0.1656148067793455 0.028482159652676 0.0296704614922809 0.183126857343634 -0.005940421994228 0.1585076804267658 )
( 0.1663914196007558 0.0353102044380074 0.0366730612498721 0.2021339357596601 -0.015210690660267 0.1663631237862027 )
( 0.1694028812452947 0.0486348164178898 0.0424318905108442 0.2277358718930666 -0.0249340384819732 0.1750861674854602 )
( 0.175106611074804 0.0666726699270189 0.0463798487276563 0.2575841336290813 -0.0345400092467364 0.186818151707132 )
( 0.1832158224841056 0.088570913117118 0.0486290387334994 0.2902531204118845 -0.043389704808569 0.2001297794689067 )
( 0.1929905016720058 0.1140445990884092 0.048929942047737 0.3255745578252567 -0.0516804092126708 0.2132465116823236 )
( 0.20472284509704 0.1411951854405154 0.047319717862983 0.3586001346899142 -0.0579498477328213 0.2264960764824793 )
( 0.2174104779298377 0.1679384651823844 0.0442644204544509 0.3871122279381941 -0.0623537832866229 0.2399329668244459 )
( 0.2294709607585302 0.1932219984136183 0.0389662538995212 0.4117274226305533 -0.0662824934566646 0.2503347193254479 )
( 0.241469138065947 0.2169675083815728 0.0333230906702775 0.4327775858851903 -0.0694814788964839 0.259321103493842 )
( 0.2534096996297016 0.2389071517795124 0.0283654426278091 0.4495728260228739 -0.0713056444587328 0.2669143027445561 )
( 0.266329543743252 0.2609167222968329 0.0234701902382953 0.4641483681429353 -0.0715541776424237 0.2723225043051202 )
( 0.2804553703532921 0.2830882221042963 0.0186402477791213 0.4777236069373156 -0.0712564224585768 0.2760769957844222 )
( 0.2972892636754973 0.306253875233337 0.0138283320002325 0.4898814592972201 -0.0704081300001901 0.2778389826426418 )
( 0.3176226345528612 0.3307184354973277 0.0091886194953427 0.5000155175691359 -0.0688516890066086 0.2770594318570147 )
( 0.1800733159970692 0.0467670968409275 -0.0062843284088108 0.1494725235598016 0.0147347827253118 0.1545117734295476 )
( 0.1726083282115737 0.0363306658297479 0.0080635136565774 0.1476334396802472 0.013527355319809 0.1455062985361163 )
( 0.1667661677014975 0.0289766378818069 0.0223211218063837 0.1536478106671965 0.008226863488742 0.1448017255004947 )
( 0.1647712893030126 0.028665247171384 0.0336126940144886 0.1649512517092271 0.0001515637298043 0.1503692762597654 )
( 0.1655306910334505 0.0348172621553864 0.0415170859185062 0.1825861782519586 -0.0092648788474089 0.1586032851521333 )
( 0.1682080437633431 0.0465826274090388 0.047011361307789 0.2062105445422483 -0.0196524845462049 0.1692136782899378 )
( 0.1731162975285914 0.0643196680400546 0.0507032684016702 0.2356463619166576 -0.0299515789108027 0.1812332061933581 )
( 0.1804935312202705 0.0870576820680557 0.0520010469696177 0.2710842825376403 -0.0402337868883471 0.1958531558409049 )
( 0.1896009801132342 0.1126811913328625 0.0514726361084232 0.3084619163500121 -0.0491375155540974 0.2114416891860924 )
( 0.2001819248575024 0.1407359745817578 0.0486386088176972 0.3470941064712496 -0.0573882543024864 0.2266867882140591 )
( 0.2121238544227418 0.1697403870848019 0.0435859165137153 0.3844194055496113 -0.0645211124584144 0.2413371118540105 )
( 0.2247657771325762 0.1983743487358611 0.0375513140382184 0.4169967542459466 -0.0694718199864368 0.2549488181423368 )
( 0.2383904202194716 0.2265910062144056 0.0310428856226202 0.4446640255049877 -0.0724464634513678 0.2657859248638521 )
( 0.2527217134924313 0.2533809044922133 0.0246722504252262 0.4687843787804543 -0.0742091333936106 0.2738368428033037 )
( 0.2678092147940216 0.2791119566051492 0.0189865018158404 0.4897351787762485 -0.0747385469465633 0.279432918555731 )
( 0.2847319330106986 0.3054480477550592 0.0138043126298788 0.5091390422903452 -0.073993166184921 0.2828060414854823 )
( 0.3039530897185602 0.3327405781955083 0.0088239682162876 0.5278001653924053 -0.0729720734763008 0.2839493895919571 )
( 0.3273318899979645 0.3615468410712245 0.00374597793135 0.5445285248629217 -0.0716473331297452 0.2822460634441957 )
( 0.3565471116579687 0.3925252186792161 -0.0010088075042023 0.5581289914870604 -0.0693383703191031 0.277859308174979 )
( 0.1733839461658096 0.0398327603849921 0.0063466001432229 0.1415086873907311 0.0146476367487321 0.147873950920715 )
( 0.1684399583692511 0.0326095577842459 0.0208823664805842 0.1405307973867344 0.0128013503966753 0.1387120025789418 )
( 0.1642033056778956 0.0293935404821574 0.0347969155500285 0.148067051098653 0.0066978815762897 0.1405629740396095 )
( 0.1633941160550894 0.0334304731585095 0.0439533153779661 0.1621409358139717 -0.0023607803482403 0.1488246795459219 )
( 0.1652141066046843 0.0441779913784352 0.0497077668599994 0.1832520788574425 -0.0127965174216014 0.1595387243973403 )
( 0.1691672521811797 0.0602519434513086 0.0533997816511884 0.2116757081998368 -0.0240307800798966 0.1735484674146822 )
( 0.1757430353420296 0.0810829510014959 0.0544964609775077 0.245832499118151 -0.0353364264180379 0.1892007781513547 )
( 0.1841398015215605 0.1065252628087193 0.053248159130927 0.2854289608732141 -0.0458961734875798 0.2068041300772898 )
( 0.1937842840053475 0.1347653205835662 0.0500091959860823 0.3275004317008913 -0.0552150992560879 0.2246532330281822 )
( 0.2044932545371559 0.1644918077173038 0.0444788682499109 0.3695096691303042 -0.0629256376474515 0.2403939440451957 )
( 0.2167166072158396 0.195170736594157 0.0375239584567161 0.4108145626275975 -0.0695193031569457 0.2552545457709107 )
( 0.230945090868198 0.2271466400973617 0.029826592849859 0.4491773800212096 -0.0742556410848634 0.2680889753488378 )
( 0.2465732954314109 0.2581161921979983 0.0229930322731494 0.4809565552461927 -0.0761904706611963 0.277690183540722 )
( 0.2638589913078359 0.2884698374807809 0.0165128379091886 0.5096263823082189 -0.0769569462081544 0.2838722291434047 )
( 0.2832525774503365 0.3195739718638812 0.0103437350427835 0.5370498482557692 -0.0764800121337866 0.2863956053090226 )
( 0.3053349029608575 0.3516669920414986 0.0049602158769067 0.5630251568584717 -0.0753212278667661 0.2871135896844137 )
( 0.331829725347757 0.385884322714833 -0.0001993762958739 0.5879765251287782 -0.0737702879376264 0.2853570485801066 )
( 0.3640431203587221 0.4219522853621991 -0.0052771250336581 0.60949613911787 -0.0715487583090741 0.28054648914485 )
( 0.4046098603943324 0.4612651430816905 -0.0100528747241252 0.6269886509039037 -0.0684041234195607 0.2733070706678954 )
( 0.1687121234756777 0.0353530573900065 0.0181063811363341 0.1341357973210525 0.0138108724754812 0.1388216855938744 )
( 0.1661659625027996 0.0311097035218279 0.0324907841619984 0.1346527769470703 0.0116999870546405 0.1308591604246026 )
( 0.1636748250138069 0.0322588077633236 0.044516325531292 0.1449413328178828 0.0043264393043309 0.1369047856094736 )
( 0.1630491492645008 0.0402675704486734 0.0511370759147711 0.1616031236940914 -0.0056067123589158 0.148388765379914 )
( 0.165681814972254 0.0543828216747606 0.0545755519712311 0.1857545387594064 -0.0166798206436309 0.1622108621604112 )
( 0.1701937676562874 0.0737537458951015 0.0556019249320086 0.2184872976046848 -0.0288359077228604 0.1794745943838372 )
( 0.177179883203529 0.0970994942434079 0.0547233748623943 0.2575558128939585 -0.0404666738254992 0.1989285947438765 )
( 0.1854356079836956 0.1243613780058987 0.0514398588254859 0.3016622323261774 -0.0511691596473012 0.2191852728270311 )
( 0.1951211259139504 0.1539846687602815 0.0460234823352875 0.3482465391776937 -0.0607003648938381 0.2372261442350021 )
( 0.2061904126818495 0.1851929506271899 0.0387693122645852 0.3947152271289881 -0.0680553964138435 0.2530545219384206 )
( 0.2192696931628984 0.2182499734146339 0.0306419015326569 0.4403963903925001 -0.0738441740873313 0.2673643154779545 )
( 0.2356192545803337 0.2536591703650753 0.0227149264251809 0.4839264081548836 -0.0771782786755448 0.2787256769558117 )
( 0.2545155823500613 0.2891407058646874 0.0154657471708441 0.5223531091201793 -0.0781777556448569 0.2855030059583215 )
( 0.2765366219777005 0.3252378450221288 0.0087683344627142 0.5581128107752661 -0.0782191819489857 0.2888535809495942 )
( 0.3011669014807768 0.362704431718621 0.002449050929265 0.5934596154391589 -0.077510121237288 0.2892798737246279 )
( 0.3291417619021121 0.401182067515396 -0.0031737015211726 0.6269137963870038 -0.0763083386366841 0.2873345207921268 )
( 0.363336781213835 0.4424497471179558 -0.0081600311435643 0.6578596537056023 -0.073935710395175 0.2827518333953198 )
( 0.4068012966583206 0.4877152072916196 -0.0128534193858408 0.6847970518197867 -0.0705880362839067 0.2756894555422285 )
( 0.4616070155609665 0.5372473350678688 -0.017933994862862 0.7065868574413684 -0.067231831522029 0.2664079562066956 )
( 0.1673260236819426 0.0325081625501146 0.0287483398781008 0.1278159903813751 0.0134126605713814 0.1291473099563822 )
( 0.1644020214264193 0.0314787964975451 0.0410801518480453 0.1294741144914862 0.0104072389298402 0.124564574670914 )
( 0.1624207182089667 0.0365046509761934 0.0504820959028705 0.1428633758842378 0.0013804744515189 0.1350589511355132 )
( 0.163050434329779 0.0476987411026411 0.055091432001548 0.1630009918023661 -0.0092461034295559 0.1497535097992093 )
( 0.1665103552052533 0.0647059273692326 0.0565589259437866 0.1910667709357413 -0.0209609164271655 0.1675321951353984 )
( 0.1715728248610369 0.0867049863179696 0.0555220738752958 0.2275424705123507 -0.0333918087980054 0.1875560734685371 )
( 0.1781046469407773 0.1122190966106342 0.0529127200006262 0.2705263349488199 -0.0449227129591932 0.209177543908801 )
( 0.1854501211591543 0.1403953548967156 0.0478742678567552 0.3193010388290062 -0.0561262051605738 0.2311581985002709 )
( 0.1945249853973581 0.1706760221968107 0.0407270566972966 0.3709807219563996 -0.0656800406204598 0.249081505031587 )
( 0.2061366406168285 0.2036660488757929 0.0327162506714201 0.4219533377813766 -0.0721655299021572 0.2640087570980998 )
( 0.2210502331568339 0.240313848092468 0.0240351204607314 0.4739614448820939 -0.0773018420689908 0.2772837764496996 )
( 0.2399263029703998 0.2797139720622586 0.0161396526915511 0.5240290281792569 -0.079330382516916 0.2861970324339188 )
( 0.2625947282404544 0.3205940633228288 0.0085774955033363 0.5704514328619436 -0.0797402534390737 0.2904267653394547 )
( 0.2899681434659029 0.3638475539238032 0.0016024256049773 0.6157763582519871 -0.0792260950590088 0.2910115909077563 )
( 0.3201534844612049 0.4075681759699503 -0.004233819334922 0.6587126421631849 -0.0776919281970207 0.2888610326530097 )
( 0.3550521686638248 0.452919017138372 -0.0097408708896232 0.698858971091838 -0.0758578266894306 0.2845368303085276 )
( 0.3989650075752921 0.5035382857552655 -0.0150930927649211 0.7378074345375868 -0.0733672054693867 0.2779779182655175 )