/*--------------------------------*- C++ -*----------------------------------*\
| =========                 |                                                 |
| \\      /  F ield         | OpenFOAM: The Open Source CFD Toolbox           |
|  \\    /   O peration     | Version:  2112                                  |
|   \\  /    A nd           | Website:  www.openfoam.com                      |
|    \\/     M anipulation  |                                                 |
\*---------------------------------------------------------------------------*/
FoamFile
{
    version     2.0;
    format      ascii;
    arch        "LSB;label=32;scalar=64";
    class       volVectorField;
    location    "0.0029";
    object      U_LES;
}
// * * * * * * * * * * * * * * * * * * * * * * * * * * * * * * * * * * * * * // 
 
dimensions      [0 1 -1 0 0 0 0];
 
internalField   nonuniform List<vector> 
13597
(
( 17.062971966448224 1.5586858142894462 -0.0051099455683874 )
( 17.06043331737289 1.5990530692365523 -0.0075245484761842 )
( 17.068781887146994 1.6831468750351226 -0.011531125815839 )
( 17.086377793235595 1.7924126506015128 -0.0148215878995742 )
( 17.1031743555252 1.8847573421332349 -0.0139266701034517 )
( 17.11450224649714 1.9592057873767303 -0.0105850848655484 )
( 17.129240230517528 2.033367244495595 -0.0062205403891192 )
( 17.147655526967966 2.113097107646027 -5.2281285282214765e-05 )
( 17.16847111192098 2.1933586744382265 0.0065163706335747 )
( 17.19119271191809 2.273677730762361 0.0137784688555647 )
( 17.21533030523058 2.362176344504896 0.0221157330927206 )
( 17.243329396075367 2.45164413406894 0.0299657453918124 )
( 17.27387267910854 2.540476489772036 0.0373718753598121 )
( 17.30475716706317 2.6338429394696714 0.0453378527563145 )
( 17.33530533450379 2.729670696600224 0.0525773795262918 )
( 17.367596400544134 2.8250428304394064 0.0590276786143476 )
( 17.403049483655803 2.9175307103338057 0.0655585915546467 )
( 17.439296564276244 3.010614526557822 0.0700285519411299 )
( 17.476014147190295 3.107550626246171 0.0737474536662382 )
( 16.920123418717697 1.569505151423278 0.0054984698153308 )
( 16.899050706795023 1.6192343877560544 0.0054516162788767 )
( 16.887138046929845 1.7276526532154857 0.0061800041103525 )
( 16.879426765355788 1.8521466717850612 0.0092792969703754 )
( 16.87154495538317 1.947406916272449 0.016872344988238 )
( 16.863444160880363 2.0350684187937578 0.0268051329800179 )
( 16.860646995598895 2.123833968418128 0.0375520524701993 )
( 16.85900002452993 2.2174437099582214 0.049699545864569 )
( 16.859758912779323 2.3134497646250867 0.0616273875594287 )
( 16.861520373289448 2.4092170527805568 0.0737373985808639 )
( 16.863678699499374 2.51465218952678 0.086347265604386 )
( 16.865238849407447 2.6269167203647954 0.0993414716157148 )
( 16.86574822845039 2.7405763567726544 0.1104284027211777 )
( 16.868967659302726 2.8575172835125784 0.1197382463028959 )
( 16.87331665674432 2.9722576991154903 0.1279873478547442 )
( 16.879298428723317 3.0814756736262323 0.134102671035586 )
( 16.885666528804084 3.183000264618003 0.1387459381561967 )
( 16.89167028595428 3.287198782654109 0.1420180438806363 )
( 16.90207582819359 3.391197051468964 0.1438193656453529 )
( 16.777703883321507 1.5754809391887274 0.0143592535146617 )
( 16.737698368921585 1.633289262624569 0.017882146709539 )
( 16.705438263670302 1.758208533780302 0.0251068251423938 )
( 16.675234289293687 1.8937101103247755 0.0362383073426452 )
( 16.646159552217362 1.993986236279993 0.0496065619746167 )
( 16.622755953805484 2.0934597150071013 0.0645712367084441 )
( 16.603954908909216 2.196236520436255 0.0805151164560651 )
( 16.58059856239668 2.299698306018608 0.0970205648129201 )
( 16.55937151769386 2.408168824201988 0.1125325819318696 )
( 16.53991017442814 2.52512337718305 0.1279904555443888 )
( 16.518297157775212 2.6477577058979493 0.1423192215228113 )
( 16.495841105959343 2.778888689004162 0.1550421755135847 )
( 16.473816610506464 2.9145054756039066 0.1650182513322263 )
( 16.45404605816319 3.044961147749041 0.172165179653801 )
( 16.436262775084028 3.165011733533165 0.1773636419572737 )
( 16.42103319814274 3.272567009142307 0.1798429944388242 )
( 16.403750189071655 3.3697908192050505 0.1805927915710346 )
( 16.385342558486826 3.4682719893752303 0.1802959545372063 )
( 16.373992150936846 3.5712051843669217 0.1789495289130343 )
( 16.63680965621749 1.5755257906804423 0.023512701772877 )
( 16.580410391308693 1.6417021754127612 0.0304739676394398 )
( 16.531959748579126 1.7759595376139212 0.0436876502105181 )
( 16.48336683052361 1.9188239028923872 0.0604240857164877 )
( 16.434208658102417 2.0266397197779664 0.0771852255189273 )
( 16.391304143559044 2.1324106797894187 0.0944207585653555 )
( 16.34707714849282 2.2452011987127927 0.1121057803433431 )
( 16.298421321300385 2.359380237541963 0.1292975959495941 )
( 16.255115848762166 2.47809314143491 0.1447628601285069 )
( 16.213097416680185 2.605639369577654 0.1585570270878503 )
( 16.16510061638301 2.7412054561294776 0.1696695026835786 )
( 16.121034035061836 2.882721530085443 0.1774498977422104 )
( 16.079176772283304 3.025085764127021 0.1823164619176077 )
( 16.03408053504267 3.161559790619476 0.184916716844045 )
( 15.989984962684678 3.2792879048323216 0.1853324907832961 )
( 15.948599175243189 3.3808013766046594 0.1846463390090717 )
( 15.907338402192332 3.4734774206268417 0.1831913028009634 )
( 15.862665431993308 3.5678674757763718 0.1807224132137881 )
( 15.820915937316004 3.673781822148327 0.1775870762752419 )
( 16.504418029355424 1.5708467753027018 0.0313589329135855 )
( 16.438324197276685 1.6471198180875757 0.0397944859860569 )
( 16.373338379675356 1.7904711001244469 0.056345718588114 )
( 16.30337425860003 1.934388573659625 0.0760517771806218 )
( 16.23479739448013 2.0454651405962387 0.0932559374766701 )
( 16.168816145833123 2.155288543771224 0.1098339689691171 )
( 16.096891088254736 2.273200140467832 0.1269051865004822 )
( 16.02347457220205 2.3936178512602915 0.1411165768488292 )
( 15.953906099590078 2.515201569736547 0.1528797502243735 )
( 15.881794439196296 2.645634993375833 0.1625784141246854 )
( 15.804441075967484 2.789676679890516 0.1698436014438979 )
( 15.729264983709006 2.938151876453685 0.1743185293669156 )
( 15.654425229717711 3.0828610817217736 0.1759411595877008 )
( 15.57653710292271 3.21860092625064 0.1760476289900364 )
( 15.50006438422051 3.330291816341708 0.1742972812221487 )
( 15.425559160293789 3.430848251185051 0.172059020399998 )
( 15.353088764799738 3.5275102914474656 0.1697558058968832 )
( 15.280595923300073 3.6252220828828152 0.1669426584392961 )
( 15.207250389714758 3.7366574447146967 0.1636209483059004 )
( 16.38327898769028 1.560546571888976 0.034277309701343 )
( 16.306130549197633 1.645547405587037 0.0434151631423299 )
( 16.220366976415573 1.7989657131614385 0.0609678085750731 )
( 16.129487827817364 1.9424139085442391 0.0809761789164576 )
( 16.040931980447706 2.0532338377581585 0.0975381968220308 )
( 15.95198247943122 2.165406657229362 0.1125223667013505 )
( 15.857615054338249 2.281568258381347 0.1270851819408633 )
( 15.75716136133826 2.400359147533307 0.1379723681937098 )
( 15.650863780711406 2.5227271638084283 0.1464772429165158 )
( 15.541111245178236 2.660158357500919 0.1542589016215034 )
( 15.433372052420331 2.806858916333453 0.1599235130856357 )
( 15.322067827894658 2.9547977875155937 0.1618885487695943 )
( 15.2121065291126 3.1004186956282678 0.1620442333550549 )
( 15.1050949122515 3.2331296370209324 0.1615376580643127 )
( 14.997518514992027 3.3438447681902863 0.1591675271699081 )
( 14.897199565271046 3.4421394980797344 0.1561203249803424 )
( 14.79834576640804 3.5379778070680112 0.1530700057025918 )
( 14.69870326402376 3.636294492608777 0.1496366560081607 )
( 14.59822805012271 3.7500187147264743 0.1458123663156833 )
( 16.266096529070545 1.5457122265078016 0.0319207469341474 )
( 16.175595229977258 1.6393332837999002 0.0413592824728169 )
( 16.069682161216146 1.7971368102246794 0.0604929714821563 )
( 15.958071876113625 1.936255487590432 0.0793614625759883 )
( 15.84769399840638 2.044422803295216 0.0942712669912673 )
( 15.731559793381471 2.153903242366217 0.1080855706993094 )
( 15.610687023019995 2.268488290242204 0.1197713507188118 )
( 15.481780417551592 2.385793152055008 0.1295815784828246 )
( 15.34225573352429 2.506487109249262 0.1369950248662925 )
( 15.20550608384103 2.6443927374066143 0.143232765783854 )
( 15.065879873448404 2.7918048437919385 0.1475371007932789 )
( 14.91913329139352 2.941175561435071 0.148547430222542 )
( 14.779473516102016 3.083525220988144 0.1482449943346589 )
( 14.64501276605748 3.2114055427043717 0.1470169276019135 )
( 14.510498760793944 3.323933756819452 0.1440820716641847 )
( 14.383872600040704 3.418350349532668 0.140417886065656 )
( 14.261446012647864 3.510573665890794 0.1365686580782932 )
( 14.135643303862306 3.612052794127847 0.131866132393702 )
( 14.00935188730356 3.7280255804161766 0.1262157811286748 )
( 16.157401939583686 1.5278405423584156 0.0261443656761697 )
( 16.051124464084467 1.6240437834985275 0.0348636201247177 )
( 15.923798033869446 1.779875924665408 0.0549912015965754 )
( 15.78965172278669 1.913795747091154 0.0740782061756744 )
( 15.654276441972266 2.0195805257916213 0.0881458565673178 )
( 15.51175647709018 2.1272585485594906 0.1009520065804673 )
( 15.361867627392106 2.239953691103698 0.1121374372878485 )
( 15.207565405086736 2.352196858102841 0.1213771543299212 )
( 15.04017756356107 2.469675876773718 0.127980714984554 )
( 14.87535892354057 2.6087502944002376 0.1332708072410968 )
( 14.703274157460084 2.756356305567312 0.1363370570072559 )
( 14.528527235718904 2.906659688742935 0.1367707796718844 )
( 14.362602671877786 3.047127457557397 0.1358859651331278 )
( 14.198659132859332 3.1663653770875 0.133437005766566 )
( 14.04506408654277 3.2705857772913545 0.1292392919547632 )
( 13.894850686018406 3.363408091322253 0.1240273333137662 )
( 13.747471672626933 3.457484584187436 0.1185354484636137 )
( 13.598572841378646 3.5633799698055237 0.1123867197519714 )
( 13.449680936065176 3.683256657543493 0.1054088056142182 )
( 16.053605770995265 1.5010886646510244 0.0169561283244493 )
( 15.928815762474535 1.594337424855068 0.0256533108609898 )
( 15.778643247426896 1.747632758791415 0.0467575965278123 )
( 15.623119773108264 1.8768803014022484 0.0662656534876174 )
( 15.461773967377251 1.9815661185585816 0.0815087059222526 )
( 15.298339302265545 2.0843325205705248 0.0942264054702228 )
( 15.12688825938809 2.1896624673159835 0.1056229159114947 )
( 14.949212334478876 2.302718268105741 0.1149723376503446 )
( 14.759558446360437 2.421982511482007 0.1210396564681679 )
( 14.559077324061596 2.5558442576157065 0.1254358576107443 )
( 14.358231599305022 2.702202467625145 0.1271760449521214 )
( 14.16274051564667 2.8493421161715378 0.1265335132896428 )
( 13.96723785293572 2.986300522182885 0.1240046225298873 )
( 13.778280867080277 3.1018575011170544 0.1198411394015043 )
( 13.60689188401059 3.199640110298925 0.1143488972392683 )
( 13.43439617680276 3.292680137692587 0.1073793971206108 )
( 13.262797804980163 3.386882173992392 0.100728288795592 )
( 13.090746190363555 3.493429105070325 0.0942449659277138 )
( 12.915750883948483 3.6170921684006174 0.0873308245933007 )
( 15.94800282449373 1.4708320952450364 0.0062376643413965 )
( 15.804983126393124 1.5663839133104784 0.0176381284510775 )
( 15.634031556436817 1.7148394294424147 0.0407178999306596 )
( 15.458333436332673 1.8330036618253784 0.0602406664989554 )
( 15.278442123184528 1.9345626178765687 0.0762149231835967 )
( 15.095825911398917 2.028808606903463 0.0897060812843271 )
( 14.900974907702114 2.1244471778755174 0.1007948220695096 )
( 14.694742154762768 2.2339878161282605 0.1098230773175306 )
( 14.485188762645018 2.350403910240773 0.1154589289088171 )
( 14.262481803672843 2.481687089128165 0.1181006231418265 )
( 14.038648609688696 2.6300933712657053 0.1185368638545353 )
( 13.820873487147704 2.7768378788054533 0.1168809831475125 )
( 13.603008819334937 2.906968512973096 0.1127043932497699 )
( 13.396157642358824 3.0201535738557643 0.1068786996821725 )
( 13.20049811198351 3.1156475643084214 0.1004002874173907 )
( 13.003341835309456 3.204538240782484 0.0932668554530548 )
( 12.804284979351207 3.296009136439859 0.0865817536369437 )
( 12.606190876452606 3.401804747064729 0.0800929530178798 )
( 12.406145054185806 3.530632954098361 0.0724516293038115 )
( 15.84799551604356 1.4391336809865165 -0.0026177835850506 )
( 15.689757273502348 1.535710501965552 0.0119178330491503 )
( 15.493851635914655 1.6758916658962983 0.0366479031693118 )
( 15.302852335656112 1.78167602626848 0.0563378245633235 )
( 15.107525078375474 1.8751500787866175 0.0727799818791462 )
( 14.90333217014276 1.962554057299495 0.086525281687079 )
( 14.688038404786052 2.049446162518972 0.0969321129343937 )
( 14.463192115263192 2.149423440498232 0.1050386072396858 )
( 14.23185645396241 2.265493243091602 0.1100930793375346 )
( 13.992412448167164 2.396915282120172 0.1111432504576861 )
( 13.747149302567596 2.541969591542056 0.1102420248704492 )
( 13.500313997112409 2.6899923986633123 0.107535985577881 )
( 13.266914501439269 2.8153557509839424 0.1022823155824753 )
( 13.042403653765575 2.9250505215071434 0.095886044875993 )
( 12.817661015949032 3.018346702405518 0.0889956312058924 )
( 12.591974313364362 3.10176585057396 0.0819226742685646 )
( 12.36646989796674 3.191641499961774 0.074416841388454 )
( 12.146029629823175 3.2996211128174555 0.0663773295574121 )
( 11.92027556355304 3.4350236441241404 0.0575782398981171 )
( 15.74983433162889 1.401670491804463 -0.0090485484435592 )
( 15.573400321046543 1.4960110777411078 0.0079674700010266 )
( 15.35675024188312 1.6287116159776436 0.0342921262963781 )
( 15.154052497318142 1.7222867821083092 0.0543433081711365 )
( 14.943189934137058 1.8040906257546507 0.0711102769153708 )
( 14.720699423145575 1.886167680870622 0.0846718772031749 )
( 14.4935471818978 1.9732532768350737 0.0942751073793855 )
( 14.252557330850312 2.0695494268438788 0.1012492569568297 )
( 14.0017216363931 2.182600384652176 0.1050286389938961 )
( 13.74270879223935 2.308989928929898 0.1053325515911135 )
( 13.476610391703598 2.4469817874376045 0.103531359885343 )
( 13.206868865185168 2.5870126348065003 0.0993616550442372 )
( 12.94827241186541 2.7114531035250717 0.0930401111963635 )
( 12.697140939966475 2.8230162345454746 0.0857950305827711 )
( 12.445242836877242 2.9117687203262745 0.0784353417825132 )
( 12.198296237750911 2.988391513266822 0.0708136793322368 )
( 11.954694814874845 3.0776278845127627 0.0621818498712731 )
( 11.710643846929855 3.1936558720443 0.0533769715210999 )
( 11.457962078525414 3.338378497852072 0.0462255869566615 )
( 15.650120080718825 1.3541468209852583 -0.0142945521379849 )
( 15.45948021869873 1.4458982124668025 0.0057613953540386 )
( 15.232238799692205 1.5727766507260916 0.0335647054601904 )
( 15.015347330883582 1.659781120377959 0.053850383783147 )
( 14.791911539989444 1.7373759167992624 0.070578890364816 )
( 14.5563404810293 1.8146617699531868 0.0837881255279462 )
( 14.314866428011834 1.8970656996402708 0.092492012312065 )
( 14.056226874331038 1.9856475503976143 0.0982256098718965 )
( 13.78674379869845 2.089737723572803 0.1006543455723508 )
( 13.510737080163564 2.2149121943200742 0.0998629308948523 )
( 13.221423091304349 2.353428705202232 0.0972579703521413 )
( 12.931019487880272 2.4856469491452367 0.0914190786130835 )
( 12.644246274558968 2.6048973333710794 0.0842918741458288 )
( 12.36116090769109 2.710604369988504 0.0761956070211375 )
( 12.091998670974434 2.7901915595000317 0.0675604842002339 )
( 11.832448777979115 2.8661300628755573 0.0597245457790772 )
( 11.567634911108058 2.959179442555377 0.0524092532996635 )
( 11.294514076158324 3.0799386899692576 0.0457945992133391 )
( 11.006521022340232 3.238951681205763 0.0416060065437047 )
( 15.554773403508948 1.2974790814920103 -0.0178492998566402 )
( 15.357870352218926 1.3872601674173473 0.0048290309433162 )
( 15.118494579214282 1.509371521637176 0.0338901852275716 )
( 14.889105904040257 1.5914172327880696 0.0541328551974174 )
( 14.653055661510445 1.6648359771720014 0.0706310422470822 )
( 14.408973576299084 1.7341654950926584 0.0830538152303523 )
( 14.15423294534898 1.8093785396894757 0.0911722436577988 )
( 13.886179248657331 1.893792911930532 0.0956431911655997 )
( 13.598468941445594 1.9904865335338024 0.096757905485362 )
( 13.298658393748246 2.111000136703259 0.0951205725202153 )
( 12.985393277473522 2.247486932019501 0.0910223212145196 )
( 12.66710203193235 2.379869277404801 0.0837094004979257 )
( 12.35610415621241 2.496480272691832 0.0758992268261713 )
( 12.05603615913444 2.589612006014719 0.0673068563860944 )
( 11.769888077580385 2.66191907851408 0.0585250704258188 )
( 11.485418492904907 2.7419192598947126 0.0515646408081324 )
( 11.192780721682698 2.8448004406815457 0.0463549064555386 )
( 10.885864386308876 2.966391260481709 0.0426924565964142 )
( 10.553165477037858 3.131308422532947 0.0408740484630466 )
( 15.468081460034188 1.240305955409304 -0.018832719064461 )
( 15.260455355142872 1.327944018926094 0.00589201529675 )
( 15.001706841217976 1.4455733284690488 0.0357840464663324 )
( 14.76426905868142 1.5169862180087508 0.0556648731590908 )
( 14.522697705299958 1.5825454178839735 0.0710123106683352 )
( 14.272906780357708 1.6468761311488176 0.0821930783929528 )
( 14.005970380186191 1.7147968090319603 0.089769468321666 )
( 13.72185550327936 1.7959255838654076 0.0932244655141288 )
( 13.421127280788673 1.8874712090618904 0.0934079288193816 )
( 13.10131992438386 1.9990497425324047 0.0907603011699853 )
( 12.760676406196191 2.131528413072883 0.0847303759072919 )
( 12.413741424174232 2.2593198394193936 0.0766008341091053 )
( 12.077796164835632 2.373183779382351 0.0682333717307997 )
( 11.766176193596158 2.459988145797273 0.059704440084714 )
( 11.464356223770649 2.5294145011911646 0.0528513356585979 )
( 11.153405567639217 2.610801575979686 0.0473527840055014 )
( 10.825014590601572 2.7168366501855945 0.0434397026237185 )
( 10.474466543404745 2.8495886923908884 0.0418566043324068 )
( 10.104040893765868 3.0337938901112484 0.0416337250705968 )
( 15.388224698249532 1.1846823966785347 -0.0176449391389197 )
( 15.171829512184924 1.2682382003062178 0.008384862749117 )
( 14.900644463366447 1.3782634449596851 0.0381489867152838 )
( 14.654280593340363 1.4380344640214189 0.0576008733908948 )
( 14.407189515990591 1.4928436662955906 0.0713485504884425 )
( 14.149145872513005 1.5582833565609289 0.0811395666928994 )
( 13.871828647859669 1.6180282095145886 0.087580713850121 )
( 13.569506676389157 1.6870661536999716 0.0903804031638848 )
( 13.250583380712465 1.7777954051682123 0.0903386400330749 )
( 12.912250340611036 1.881939230550391 0.0860067636182758 )
( 12.540717189250916 2.0122167905285724 0.0782774684465054 )
( 12.163984791296668 2.1381618500155435 0.0700200248152086 )
( 11.81675986464366 2.241334482645388 0.0620203662138742 )
( 11.49635494586382 2.3227164910304983 0.0551271075362644 )
( 11.17480059177256 2.3935822666001783 0.0500636576642804 )
( 10.834309470408249 2.476238413406133 0.0456471674206653 )
( 10.46481261899253 2.583089735721613 0.0441874017907931 )
( 10.068458426068837 2.731004522327916 0.0430969877799435 )
( 9.677982973314853 2.952901298140203 0.0405086912430657 )
( 15.316809251041697 1.1279772018914578 -0.0148569287297498 )
( 15.089113791931036 1.2040376747124826 0.0115099002072888 )
( 14.810451171339752 1.3085081544404968 0.0406918990151077 )
( 14.562271988258212 1.361751105389594 0.0590508393909206 )
( 14.306648502100265 1.4091084983681117 0.0721600391558053 )
( 14.033911652863155 1.4669787491990114 0.0815207285877622 )
( 13.744251598270276 1.5164742820392745 0.0868882936239873 )
( 13.43507574053569 1.5808353896595309 0.088431138303457 )
( 13.096756364833388 1.6682405618536276 0.086956994277956 )
( 12.733061956534382 1.76070002580132 0.0812851140183733 )
( 12.348121777403405 1.882570897838945 0.0732469882280868 )
( 11.949074261469097 2.0159774461565942 0.065047053092296 )
( 11.586645714453262 2.112783098289532 0.0580844890312409 )
( 11.24759919674898 2.18354898449554 0.0527006652285109 )
( 10.8952184924073 2.255279181802327 0.0478785921427199 )
( 10.514499136056337 2.33435558278803 0.0446319736278857 )
( 10.106450407123612 2.448276920468564 0.0434324920651474 )
( 9.68645913605369 2.6175271504851167 0.0403957179098011 )
( 9.292776408873875 2.885448058345081 0.0358963140859779 )
( 15.24859736798453 1.0690816943730397 -0.0108010691207031 )
( 15.01390768450571 1.137937824494214 0.0155407492868307 )
( 14.729084712008 1.2337915037599094 0.0438492971479973 )
( 14.480232292339675 1.28125020790172 0.060699178013043 )
( 14.217737741661203 1.3273590013379175 0.0731545484289378 )
( 13.932070806417634 1.3768342012047523 0.0818032202299007 )
( 13.6339890010992 1.4130258569534595 0.0862753597271224 )
( 13.311666651261724 1.4745202879559776 0.0868187613655117 )
( 12.952123019467502 1.5589249933953606 0.0832414787442975 )
( 12.567800849614793 1.6485546410120897 0.0770286483548759 )
( 12.162860150647852 1.7557680529483977 0.0698078403215551 )
( 11.749375712792984 1.8711757417516317 0.0622066891585781 )
( 11.370403388876545 1.9671360954747563 0.0557538953269873 )
( 11.001820275460634 2.039904184889911 0.0507701758373269 )
( 10.61735563761438 2.101551130527606 0.046028412305229 )
( 10.205093601773816 2.1800751209957445 0.0420777707658445 )
( 9.7658292908018 2.3021920442332027 0.0396213134851562 )
( 9.33790980485444 2.507448438969728 0.0348464218782517 )
( 8.921761775870415 2.843067140887131 0.0292798943017841 )
( 15.18861665561166 1.007704317813979 -0.0069462045161382 )
( 14.949736258420751 1.0687881919347453 0.0192988679176791 )
( 14.655825274053573 1.1522835811438836 0.0468281374004114 )
( 14.404885589324774 1.1979142075526217 0.0624768151305839 )
( 14.135924998917517 1.2386089205600832 0.0738242212989865 )
( 13.836881918584544 1.281486610096884 0.0815555906918406 )
( 13.537489593474254 1.3159469116014055 0.0853037233475786 )
( 13.2015837634851 1.36412529225403 0.0849183735288276 )
( 12.819019072979474 1.4412007143525112 0.0799232474074942 )
( 12.411956452311356 1.530951119809306 0.0735884903843184 )
( 11.979414864176576 1.6315383693012366 0.0668954656613277 )
( 11.559772746645145 1.7311501982320563 0.059325502803786 )
( 11.15943261878146 1.8147975454916083 0.0530074456764399 )
( 10.757858066716494 1.8853570965204844 0.0490201313061323 )
( 10.351055669050568 1.9471597134920384 0.0454006386147431 )
( 9.914401806574782 2.0326025613923293 0.0410062535277511 )
( 9.451134528962136 2.168849317886109 0.0368085525172917 )
( 9.004802419128797 2.407455035767873 0.0309660669707925 )
( 8.489821933949917 2.772537114230933 0.0223875819486342 )
( 15.139982790614834 0.9446343639808498 -0.0023998368237959 )
( 14.89210625729786 0.9941166382408356 0.0233848514429301 )
( 14.590294322533978 1.069035049925302 0.0498164715870674 )
( 14.334955253242336 1.111418373788199 0.0644060299899689 )
( 14.060047775010982 1.1484214352583595 0.0747980085989656 )
( 13.75031357154267 1.1895559389118495 0.081575866378003 )
( 13.438440750227532 1.218791065587816 0.0844991484624372 )
( 13.096417396651844 1.2553484506998307 0.0831471458601018 )
( 12.703005664717654 1.320456604115079 0.0776722359595913 )
( 12.273221730644424 1.3983880942233575 0.0711959467122008 )
( 11.81854777100008 1.498298841409334 0.0645396743498599 )
( 11.383268277797583 1.597557353642842 0.0564102663142132 )
( 10.956842595331754 1.6679036426764788 0.0502415607233608 )
( 10.532547533475196 1.7267653621414143 0.0465789439847721 )
( 10.092922648194678 1.7983323585349034 0.0443048725951553 )
( 9.633343900147407 1.8882841670999533 0.0417337721180846 )
( 9.158054485371617 2.040127281461948 0.0353422076678401 )
( 8.63682104735004 2.308736303310165 0.0273965104260625 )
( 7.959455681392627 2.6428434996537944 0.0161560136484265 )
( 15.094759179105065 0.8760556205573682 0.002708396691161 )
( 14.84416924547141 0.9223592021927108 0.0274085848106564 )
( 14.540131894528145 0.989321544451245 0.0523324934507294 )
( 14.27583674101577 1.0195468440159257 0.0661256606678429 )
( 13.993667890503737 1.0547184801469256 0.0759656201987287 )
( 13.67732861250733 1.0969504213396764 0.0817622307873133 )
( 13.35134161678491 1.117028833323284 0.0837728388625607 )
( 13.003062426782044 1.1444643657241595 0.0814198986933809 )
( 12.590298467528818 1.2016550898026237 0.0758576331035749 )
( 12.142063694141802 1.2715385573388915 0.0694481982323258 )
( 11.670679709143052 1.3617300372643164 0.0620748060725649 )
( 11.205216962526448 1.4538702533452144 0.0544959565022034 )
( 10.76411214832042 1.5256847251191827 0.0491045203412263 )
( 10.332166558482198 1.5796421550283557 0.0444517169089703 )
( 9.862685495389428 1.648768035436506 0.0408854163605146 )
( 9.368829021133324 1.74049501396827 0.0364842117197558 )
( 8.872295036901146 1.9043555781842003 0.0310763964098152 )
( 8.249907282585955 2.186277375626544 0.0219073724017927 )
( 7.343706257670963 2.4485365924923443 0.0092385140168651 )
( 15.055697798047186 0.8054318326398973 0.0068236311867126 )
( 14.803186920870989 0.8511753772210804 0.0308116536177694 )
( 14.49521348412158 0.9137506478378492 0.054615185576782 )
( 14.22633346840728 0.9381141650498348 0.0675179365064134 )
( 13.933672186926891 0.9655394966192782 0.0769198998287815 )
( 13.60441648288522 0.992070936715672 0.0822091002543055 )
( 13.268795245945816 1.0072573857790563 0.0830673640956116 )
( 12.914301486231992 1.0290455618423626 0.0798503966807138 )
( 12.474835192182654 1.0774300117217006 0.0740910678724004 )
( 12.0076600573038 1.1470712350635626 0.0674724185119238 )
( 11.532765196400284 1.2277990787128314 0.0596903428185933 )
( 11.05399503005374 1.3161548170364814 0.0535836880097742 )
( 10.595671905862108 1.3910547059121072 0.0485520826739434 )
( 10.135445127389175 1.4340163394078742 0.0435345164061576 )
( 9.652079592936836 1.4914801765947945 0.0390120494355068 )
( 9.134066574520183 1.584735059293655 0.0320827507929364 )
( 8.565660207010602 1.764385401718546 0.0246181274835632 )
( 7.873794473442639 2.051870672556108 0.0127300441501608 )
( 6.605888945612848 2.167615817404057 0.0016296663762925 )
( 15.021854720318704 0.7405549703550794 0.0112252041788442 )
( 14.763488377001798 0.7796827153839501 0.0352211580584685 )
( 14.452100897568291 0.8367904696113203 0.0578442884399295 )
( 14.182282165872012 0.8602373929874801 0.0698645916441856 )
( 13.879954997582672 0.8781395272729703 0.0787263374466441 )
( 13.544292774430298 0.8910045986693992 0.0824133973145061 )
( 13.19879557523472 0.9065135931702434 0.0812549618859243 )
( 12.8254090164853 0.9284189975879952 0.077941838013949 )
( 12.36668044769084 0.961762867515392 0.0723911334969976 )
( 11.877073996709829 1.0233296208293148 0.0651722961679979 )
( 11.396356817775349 1.0939439557864838 0.058450273989112 )
( 10.920018821518967 1.1659962864464064 0.052414223197531 )
( 10.445494682304725 1.2318946761636258 0.0464424400829753 )
( 9.954037639079164 1.274000146122692 0.0429295217081232 )
( 9.444295059472736 1.3227146501097276 0.0406016198215204 )
( 8.90202049756356 1.4154620417238193 0.0331033814085822 )
( 8.24964460462811 1.603678721257912 0.0216568641711205 )
( 7.379661186926269 1.8459280398787237 0.0090035614273642 )
( 5.901512862568691 1.8514436602157136 -0.0009433403819843 )
( 14.99498020434789 0.6738294166540029 0.0162649211299107 )
( 14.730978520151572 0.7098632251107339 0.0396318269917272 )
( 14.411344283669528 0.7609751925507326 0.0611258157172284 )
( 14.139223744155805 0.7772050723120859 0.0720873948965557 )
( 13.831314498565224 0.7922360340905287 0.0801231632694171 )
( 13.49466556832352 0.8063249885585307 0.0827268830169662 )
( 13.144949171686417 0.8182795197728021 0.0801298613921196 )
( 12.749457279701463 0.8300265755395217 0.0764099743913681 )
( 12.279260022050684 0.8558550837254005 0.0711723113022856 )
( 11.781276167238763 0.9088195347319736 0.0635870388309566 )
( 11.282579077470317 0.968607490670335 0.0568306824919481 )
( 10.783337337985673 1.018990609957599 0.0508641970840496 )
( 10.29011085857794 1.0654321380055525 0.0446686214715426 )
( 9.780800296552734 1.1031395694548431 0.0402860906737009 )
( 9.249457147199726 1.150850995863152 0.0374341278339237 )
( 8.662774760474836 1.257485190727788 0.0292797029594818 )
( 7.950029479776569 1.4373319179310529 0.0195047908179567 )
( 6.861230162955451 1.5839741022683238 0.0087155938366763 )
( 5.303993759391813 1.547693949415074 -0.0027018832240999 )
( 14.974419802191946 0.6045625950735537 0.0211846060354178 )
( 14.708985051499424 0.64036104211063 0.0429830599382454 )
( 14.379729934611657 0.6882058674276038 0.0636540838079937 )
( 14.100027233663416 0.6962700787248244 0.0739814286810482 )
( 13.78554113220813 0.7036713741128324 0.0808278525525937 )
( 13.444555306151823 0.7150201394402509 0.0829455785961431 )
( 13.090086980515816 0.7130908583685628 0.0800764068878289 )
( 12.682819687830907 0.7184020236981472 0.0761939663596304 )
( 12.210578241338942 0.7518326342375377 0.0709777904660827 )
( 11.70553121352226 0.7962047469866476 0.0625562189013621 )
( 11.18254250826296 0.8471234191945974 0.054515348365912 )
( 10.6604017443093 0.8783804221487844 0.0494590753920484 )
( 10.149315325230663 0.9071071289400924 0.0434299327853839 )
( 9.610583027750767 0.9324863540429862 0.0377374886754005 )
( 9.061314430533482 0.9758893580532672 0.0309762580360444 )
( 8.413843817445182 1.0880648321750606 0.0214372725567619 )
( 7.629819934388871 1.2464358247276643 0.0140244043466486 )
( 6.435628477389102 1.3255069228716696 0.0059489992968966 )
( 4.762509175884541 1.2461934603913347 -0.0032811631615341 )
( 14.95702801129456 0.5444402974150263 0.0252654167090125 )
( 14.689071233293149 0.5739039309607424 0.0464072437551718 )
( 14.354603803320328 0.6137574083781543 0.0662661754549908 )
( 14.067645575759077 0.6181347731557999 0.0758856183249045 )
( 13.746987961341878 0.6162901781393507 0.081453153438529 )
( 13.404193387227092 0.6175801155991564 0.0824247275838132 )
( 13.037259051693724 0.6052399691576114 0.0795603807648089 )
( 12.619818834617938 0.6134982932296338 0.0762088197287081 )