/*--------------------------------*- C++ -*----------------------------------*\
| =========                 |                                                 |
| \\      /  F ield         | OpenFOAM: The Open Source CFD Toolbox           |
|  \\    /   O peration     | Version:  2112                                  |
|   \\  /    A nd           | Website:  www.openfoam.com                      |
|    \\/     M anipulation  |                                                 |
\*---------------------------------------------------------------------------*/
FoamFile
{
    version     2.0;
    format      ascii;
    arch        "LSB;label=32;scalar=64";
    class       volScalarField;
    location    "0.0023";
    object      k_LES;
}
// * * * * * * * * * * * * * * * * * * * * * * * * * * * * * * * * * * * * * // 
 
dimensions      [0 2 -2 0 0 0 0];
 
internalField   nonuniform List<scalar> 
13597
(
0.227433178101861
0.225032659988164
0.2184749763013263
0.211299131847254
0.2068055888821388
0.20368383896089
0.2015929726338563
0.2002826630018734
0.1997906857800138
0.1998234233123336
0.2004159381609401
0.2021499151684803
0.204391381375956
0.2072520134072076
0.2109664429500253
0.2160936900928707
0.2217824421144463
0.2268102757192854
0.2335924651359873
0.2328013428952242
0.2304367810647725
0.2232406795871287
0.2178783997699239
0.214843996501604
0.2121279644483647
0.2096263886422311
0.2082150078889453
0.2076304365487988
0.2062275419265312
0.204827024746022
0.2040424353036615
0.2036461278324106
0.2044713234857124
0.2067807039194718
0.2101151865655418
0.2137421864634084
0.2178731464020949
0.2234005765836716
0.2357187435890609
0.2324257418618624
0.2247821601703631
0.2190122232224069
0.2148470020471285
0.2113692725058278
0.2076127972513153
0.2047031067873307
0.202624384411596
0.2005657238236163
0.1992989478851666
0.1991515150392121
0.2002409206418931
0.2025807635574311
0.2057623251342922
0.2090282692399458
0.2121336993361486
0.2154828528599215
0.2187357460841063
0.2348243057415421
0.2306926623574316
0.2230600925012779
0.216759386924114
0.2124775980180395
0.2094059883361556
0.2070428754146701
0.2061959549454833
0.206040531984199
0.2062195733433399
0.2072819912060814
0.2093308008209005
0.2115202466036513
0.2146258596223125
0.2175657202310406
0.2194807868419837
0.2210923465832701
0.2224290102006623
0.2232642954895228
0.2334874855835242
0.2281630150212627
0.2209719474140329
0.2166356371785014
0.2151857053054796
0.2156543898749794
0.2173375575426146
0.220358960387041
0.2231596844555058
0.2255265457452085
0.2279630534922689
0.2306189502885483
0.2328599592594529
0.2351019445044893
0.2371161617968922
0.2383890475620008
0.239120805720424
0.2394805157552489
0.2393524674835463
0.2320334308247176
0.226794997836754
0.2220344505963115
0.2224553513382919
0.2256130137924022
0.2307221166242132
0.2362393821737926
0.2421399614628552
0.2471643212094151
0.2508485122833499
0.2534075496385625
0.254560272406158
0.2557069663186009
0.256807843935084
0.2579505373485583
0.2587508574597249
0.2595654729255868
0.2601692443004307
0.2602256215084868
0.2305754603875921
0.2274952933805058
0.228053862010387
0.2343747981966097
0.2422000580802402
0.2510846384485479
0.2588795685748509
0.2655815597294939
0.2709298682194227
0.2736431330297319
0.275017856825473
0.2752302129638033
0.2756222238406381
0.2764636368072385
0.277728227981326
0.2792492194128366
0.2807796330923591
0.2823233166167163
0.2837275732714159
0.2316575017261445
0.2318751891495838
0.2381995299662341
0.2497379301668545
0.2610616941889289
0.2715530356432575
0.2795807468178977
0.2862054916294336
0.2910574327648619
0.2920002975592131
0.292677875326513
0.2935029423250609
0.2937080793095363
0.2948849870356516
0.2967591014045359
0.2994635581496348
0.3024077920506993
0.3057319020106008
0.3094327195933539
0.234597948374973
0.2387236613500377
0.2506601394124844
0.2657967320622415
0.279172801408667
0.2898873076802872
0.2971703788877786
0.3025480160993922
0.306057175554514
0.3074554314887965
0.3079279204418581
0.3091831846395856
0.3101787336663419
0.3125555765367006
0.3161375434116384
0.3207011208403278
0.3259621181758145
0.332068717986883
0.3391096932961411
0.2388625098193392
0.2471448757762646
0.2633202945293272
0.2805718140919531
0.2941394239496243
0.3045854993982429
0.3118511877883858
0.3165164278585404
0.3192398146968923
0.3205166470386384
0.3211163360609509
0.3227886381904914
0.325765066680675
0.3303563344657943
0.3366582667152353
0.3443871222145529
0.3531976990534975
0.3628468926081969
0.3736080105457161
0.2434697669819564
0.2544958507301735
0.2745850571050121
0.2928458733777818
0.3055167020919549
0.3157901193222761
0.3234641797205748
0.3283672009993738
0.3308032682917532
0.3316845048960977
0.3333208587470723
0.3368525577111935
0.3423967902168187
0.3498688869738517
0.3595747690095409
0.3712472398361791
0.3843729028377012
0.3979923636935999
0.4130400908126534
0.2477116671219908
0.2613410604216624
0.2843682414030082
0.3026326877033574
0.3150472777742298
0.3245150660201379
0.3319095211590298
0.3369141661369075
0.3393201110176151
0.3414630410768759
0.3451364822339669
0.3518413865644108
0.3607463898929151
0.37195114012225
0.3858752824987722
0.4016559911950563
0.4189222243710132
0.4375117340354928
0.4581827677574533
0.2515213920702945
0.2679627790198441
0.2923435690068691
0.31015163363125
0.3226226411709557
0.3314683652445445
0.3382229522818165
0.3434866086316148
0.3472952383207713
0.3511689603182898
0.3575889125340162
0.367900173739296
0.3808614555962367
0.3970173038044174
0.4153000684887925
0.4350569310478478
0.4575903774822762
0.4824617300070561
0.5088910722960126
0.2544117616544948
0.2724611182789522
0.2984298074623993
0.3156048887301439
0.3279287240014599
0.3371998167152283
0.3437478484292999
0.3487619878763157
0.3542603878562131
0.361000934717954
0.3708269790050524
0.3854302084123789
0.403011278716846
0.4236401486852347
0.4468146162183091
0.4723239333271582
0.5012580043574435
0.5324890935141227
0.5653572790157614
0.256276073134935
0.2758642983423408
0.3034967536069872
0.3199681133032999
0.3321096827942305
0.3411201865664472
0.3479584133250424
0.353850426031511
0.3614570355323055
0.3715777060402657
0.3855068174203705
0.4046963963321692
0.4276961845679203
0.4529164134382289
0.4814670819111695
0.5138582675021778
0.54952639579391
0.5879902609404587
0.6340534349318113
0.2569211911368398
0.2780240254781441
0.3061181672550867
0.3229364011147294
0.3354125719958464
0.3437385483319606
0.3512933103305347
0.3594170854422679
0.3694432078194139
0.3826566187816423
0.4015498998083482
0.4264732100472578
0.454516636558105
0.4845058913166832
0.5187968816869847
0.5579278893655935
0.6017329857992207
0.6535741660387906
0.7230253904576646
0.2566454307490242
0.2788666310266688
0.3076642453499374
0.3247594292158375
0.3371073844310904
0.3458757082089481
0.3546800735254219
0.3646524505140566
0.3772139700142048
0.3945408083364097
0.4175849274608676
0.4477412802608081
0.4813257242605125
0.5172986832663554
0.5583311236130412
0.6053240251520206
0.6608544224370999
0.7344575560708272
0.8287380105540749
0.2572171135719585
0.2799912832130814
0.3087753288848998
0.3255003585725504
0.3377664049727438
0.3476415839605071
0.3579498842094654
0.3697448538026444
0.3856445700178526
0.4071954807407804
0.434999265317103
0.4701970281539084
0.5092518675435821
0.5520329948246713
0.6008091051973277
0.6573236214695097
0.7314283039849196
0.8314003532353456
0.928849461946114
0.2574518847673956
0.2799838122824871
0.3087048579725958
0.3257524938419754
0.3380009573656886
0.349007873835284
0.3606483811702041
0.3748589006948999
0.3945964413905344
0.4203955485577533
0.4540654013188279
0.4939341373224167
0.5388830138922509
0.589340219894479
0.6458886386265009
0.717003700249913
0.8165186841104433
0.94126367443945
1.0149358948538347
0.2562565856172235
0.2786433362837793
0.3078738014317717
0.3251341820106512
0.3379523486903136
0.3504504754780377
0.3637162713888429
0.3803769891809033
0.4034818816320124
0.4339047429524672
0.4729602022246234
0.5185646815420317
0.5699573957832814
0.6269800260923222
0.6963811803498534
0.786750296314688
0.9136566244119512
1.0534200621192342
1.081634676979123
0.2546964091903149
0.2769296171261468
0.3057589593789463
0.3230797211857736
0.3373664399327515
0.351719083892374
0.3668929379041101
0.3856370047994751
0.4122513627366528
0.4472551491519649
0.4920347277749641
0.5451683827015417
0.6016101908896069
0.6640204876381127
0.749141736469434
0.8669315267047144
1.0209311011045672
1.157948872576071
1.0925934773888786
0.2531002925985743
0.2749088724265666
0.3037597860132288
0.3213969242788013
0.3368686966054834
0.3533119535717077
0.3706425451687481
0.3913172747647814
0.4218845132687498
0.461326350606315
0.5107535051887678
0.5683957999799337
0.6302684454763283
0.7047609787736911
0.8058512298413343
0.9534673339997576
1.1303732324259717
1.2462100326735568
1.0268588190135093
0.251325482075742
0.273079394431347
0.30211510991703
0.3198645917588935
0.3360529282711264
0.3544203577950192
0.3743721336058502
0.3976447892583967
0.4321011509698796
0.4768566973814507
0.5302982889508288
0.5911148936866772
0.6592464030121665
0.7471715125403214
0.8722614469497715
1.0475544902688556
1.2368709345087905
1.2803676593577016
0.9475753729787162
0.2487289080118828
0.2703743266971157
0.3001153464207129
0.3180836192359697
0.3354570064755892
0.3551970324438054
0.3767972503702355
0.4031125706967324
0.4408906474855105
0.4897356799702724
0.5479520563548097
0.6159758870888291
0.6929514084416392
0.7937017149028835
0.9436230819014378
1.1446137698925607
1.3349975316654883
1.2707668446875842
0.8704458008618974
0.2459196179017964
0.2674284593841707
0.297339983142129
0.3160315376943121
0.334910598833602
0.3557434303747797
0.378961102219656
0.4081985151351734
0.4485706795610201
0.5008297561623578
0.5646045911121558
0.6398602206730069
0.7263962966826538
0.8472935988169275
1.0180448627609262
1.237488625693201
1.409525876994169
1.249835615432213
0.7819920734666105
0.2436604506421344
0.2650830136467583
0.2946718198009321
0.3140244719427198
0.3343141870485459
0.3566203081980196
0.3817075499565581
0.4132828043673706
0.4565734084529163
0.5138028704065487
0.581894420642299
0.6621571541828787
0.7588739769608664
0.8983478561448541
1.0905294993478942
1.3254301331519185
1.4365193133791725
1.193413631111837
0.7149872488183135
0.2409142279830023
0.262250744584978
0.292489562902362
0.3129030968630176
0.3339152191524979
0.3577329488182808
0.3850302126893568
0.4191816943632376
0.4654574509217646
0.5265948634843717
0.5984735547694423
0.6830220525494649
0.7902565189799904
0.943895469596158
1.160244589542498
1.4021803324064894
1.4469674942253803
1.1277332776497313
0.6581267051902515
0.2380700027022587
0.2590515349851656
0.2900532956625145
0.3122385567485142
0.3336206745470616
0.3585243623427093
0.3881324471161882
0.4243817933355885
0.4733611791249554
0.5388139578555234
0.6156507609644426
0.7030647196695262
0.8194217093278938
0.9899347361463612
1.2357997270697647
1.4761820779896366
1.4738332154237388
1.0845250747998196
0.6094716813812893
0.2354797059288692
0.2563020732936398
0.2873570021518079
0.3110732323454545
0.3335352011891947
0.3592055702495311
0.3902312087577802
0.4283786436558318
0.4802444848399488
0.5495137700675482
0.6303376461317699
0.7246104377781529
0.8567105027678469
1.040043055600206
1.3035949723089613
1.5328100368279611
1.4786940817508527
1.0452638957317892
0.5791553561230178
0.2325813050499141
0.2533863395003656
0.28507874575088
0.3103628057331682
0.3339198747285736
0.3601735536845609
0.3921494246009224
0.4325769277958743
0.4875254091122066
0.5579999346905292
0.6412082038461823
0.7459476928277959
0.8900256959672544
1.0880433557650122
1.3614497321096894
1.5332988101110852
1.4268622833000917
1.0050719587192167
0.5609144268835682
0.2292709500974195
0.2501250862928037
0.2831936643195201
0.3099056446813236
0.3343938519840473
0.3618040021680203
0.3947377307761721
0.4372213100602262
0.4948806855686732
0.566880300991066
0.6531896491818004
0.7663720111040482
0.9147478362269176
1.1306907864431746
1.413535876307731
1.5252292134583292
1.3714720823387017
0.968693149056912
0.5476904126237926
0.2259905952524581
0.2472881211290035
0.2813964406586525
0.3087979692293167
0.3345753548715368
0.363249882913101
0.3974002775645187
0.4420345185490202
0.5014752484452184
0.5755480412863369
0.6653794057355853
0.7847902559618123
0.9407035806016248
1.180305206449919
1.4618511398165075
1.5441572127623036
1.3581476573384113
0.9378624662898328
0.5314113152199743
0.223097852877634
0.2447894826448355
0.2799012440967591
0.307981311880988
0.3345242389473923
0.3633238689383636
0.3985452084878105
0.4458331243804509
0.5071875167720648
0.5839762529326306
0.6773192988988198
0.8014892706326477
0.9634299353913592
1.2214634062149825
1.507777469485459
1.5718114504363463
1.3600466902198145
0.9160328463358236
0.5133036758202906
0.2208648145575341
0.2428974286786121
0.2784523037056253
0.3069142766273277
0.3342761875441468
0.3633294903150452
0.3987902597762593
0.4481904759856311
0.5119124658165943
0.592827003951263
0.690826704542228
0.8177843928805066
0.9838491879919288
1.251517008284159
1.5479887269457375
1.6003664668227509
1.3647493186776982
0.9027889260938572
0.5021219827381667
0.2192673696093053
0.2416196477424559
0.27712608081379
0.305558147967373
0.3340053638475344
0.3640215895310125
0.3996633007043807
0.4498271466206618
0.5158287521475348
0.599922986043084
0.7013316522273135
0.8314939711601766
1.005010624053864
1.2819775913692557
1.5780593737126951
1.61616058984278
1.363966328362081
0.8922288229957308
0.494782408185338
0.2175388469601719
0.2401832862124086
0.2761691880520772
0.304776282556476
0.3339188903824331
0.3646457981898035
0.4005951426861747
0.4514808560865727
0.5197723941557275
0.6050143350451889
0.7089928798142497
0.8434089874960538
1.0240778720772508
1.3049027177261214
1.6014194800131296
1.6301444679426804
1.3583455141721894
0.8794626354782422
0.4863152809683774
0.2154386175142362
0.2385104239658181
0.2750187527573781
0.3040939199711425
0.3340811867180491
0.3657553889103433
0.4024451657951278
0.4537356400727512
0.5235522505954799
0.6098191765104045
0.7162457155828316
0.855147623814669
1.0414320042417995
1.3259584576685477
1.6212410062592222
1.6378058863592542
1.3581059700647122
0.875685242009399
0.4790835882642323
0.213826723712864
0.2373407083784734
0.2736154118520256
0.3034144714271105
0.3340542319869644
0.3659159960069326
0.4040798269853358
0.4560900248099672
0.5275192040103679
0.6141981797247269
0.7227469068801412
0.8659897518177087
1.0615062216636584
1.348602963674172
1.6305170046219355
1.6390567268883152
1.3531209997345364
0.8730551774640285
0.4749827993251945
0.2125239168086086
0.2362162279606703
0.2723595580543911
0.3026776503138553
0.3338507357219094
0.3653173480615039
0.4040764511902424
0.456928108945861
0.530471423956655
0.6176325566961515
0.7275879910186205
0.8743130520209104
1.080692155842235
1.3732465484366765
1.6345840284327695
1.633693361948649
1.3402273380585066
0.8637963732147881
0.4733484611117543
0.2108777119917498
0.234783889600152
0.2714289923984218
0.3019324100278955
0.3336724763991283
0.3654282390360487
0.4039027103522544
0.4568429747902341
0.5314026539576648
0.6192284007650298
0.7302582574221611
0.8798177778219312
1.0918982437325762
1.392200751383591
1.6400688502544922
1.6229906822277222
1.3315176296939526
0.8586478821881329
0.4729442874497699
0.2091866304903998
0.2333728523818132
0.2708295533702146
0.3014796852090387
0.3334081370520637
0.3658031766138874
0.4043020370734208
0.4576098455303375
0.5332787165174789
0.6226216912241158
0.7336339547697812
0.8860781646039043
1.1014295245832832
1.4022587486781777
1.63930572214253
1.6090291063858344
1.3202029909782926
0.8525593959658884
0.4728770030854302
0.2077710033406601
0.2324532359588849
0.2703627304131964
0.3012550442785573
0.3328187582005809
0.3660015934309965
0.4053106554620883
0.4588508129055645
0.5355962778684945
0.6279538852430925
0.7389850634548086
0.8924768171993419
1.1094435487947716
1.4062201751837196
1.638257219611676
1.6024621976265254
1.308145136341451
0.8427158052056458
0.4709362867206973
0.2064694276649469
0.2318009463974258
0.2696078237464961
0.3006239591335387
0.3324248629888363
0.3662962987808233
0.4061568838672575
0.4591160947940501
0.5353209231495064
0.6304374018627352
0.7433473844778911
0.8958763552128726
1.1111989998959295
1.412479553907627
1.6475646871615743
1.6019546125796422
1.2984691134958954
0.8341990837746017
0.4660080544295607
0.2055916688693565
0.2307139375242047
0.2683300369784453
0.2993282125329993
0.3319700984754402
0.3666098315303622
0.4063560011155951
0.4592593333149385
0.5361258899191319
0.63333056431896
0.7473601804722929
0.9005681712302764
1.1149299741350722
1.4190322976933345
1.6454023384464591
1.5894830525992028
1.2889070193963734
0.8291817543749527
0.4635492837990213
0.1887570536540748
0.1904574059516636
0.1944977271596399
0.2010277504602399
0.207152425556229
0.2114964663758418
0.2148600373525524
0.217801720866237
0.2194728698140595
0.2196503018754091
0.2190919561885211
0.2184085727112866
0.2182080003818655
0.2172935958965514
0.2156395837747018
0.2144377576722972
0.2136110869660555
0.212127088551467
0.2102385239029021
0.1791087413523012
0.179500889017183
0.1824876922414998
0.1887424512226663
0.1934826428064949
0.1974270619049541
0.2008686809512422
0.203328057484398
0.2050945765190924
0.206841305202096
0.2078855221414249
0.2092098895139804
0.2104579998854163
0.2111791047639648
0.2121243666718075
0.2130644403836417
0.2142681188929115
0.2157930692149623
0.2175074401362235
0.1712600468385588
0.1713996861322139
0.1751968417280085
0.1834540172823485
0.1890313652286878
0.1938369795670171
0.1985405393226755
0.202374313582708
0.2051565272981274
0.2076455150095931
0.2097042551795122
0.2119242703511295
0.2140241108958028
0.2162024612985192
0.2188488294681681
0.2215913500444689
0.2239973497869171
0.2261949912229214
0.2285154481837635
0.165718864829139
0.1667979396529
0.173544814789905
0.1839014824034711
0.1903636139349905
0.1958976361269205
0.2004262491308484
0.2040005797272988
0.206672777241011
0.208710753914727
0.210727835984879
0.2132885040903964
0.2164649672339598
0.2200969284081142
0.2235087561633662
0.2267505216916235
0.2298667337608976
0.2333000183713191
0.2374168113362879
0.1630555298030168
0.1665164787489289
0.1757115293371583
0.1870977528871689
0.1943917338334756
0.1998730811583449
0.2037412111313773
0.2064036101229411
0.2086055342341977
0.2106492306305243
0.2133631330531869
0.2170165208387159
0.2218169492545277
0.2276113898050503
0.2329965987668482
0.2382384132507027
0.2437758241564008
0.2497304841441373
0.2564555315318332
0.1632218018903
0.1702509334719804
0.1816970160134634
0.1929310956412222
0.199921976066171
0.2044043615267353
0.2073174771159365
0.2096216570696651
0.2120226015174308
0.214993985328534
0.2191299448899945
0.2248687803226557
0.2322438266754927
0.2402079524310333
0.2480146604551803
0.2557709301503109
0.2631673909312895
0.2711224361253315
0.2802846463428696
0.1681429939369517
0.1772972531038495
0.1896037241865382
0.2000058216762064
0.2053468950350188
0.2083589213702823
0.2108272589024782
0.2134115219677858
0.2167268814627903
0.2210985834571801
0.2274251523719629
0.2362121964588253
0.2463222012101298
0.2564503113985608
0.266506945103157
0.2763500405419373
0.2857538294828693
0.2957911037088241
0.3067299805714502
0.1761604346095762
0.1862674025972672
0.198098828331381
0.206187344427489
0.2098753785771803
0.2122237350394486
0.2150494187786613
0.2183995654357771
0.2230660964414509
0.2295879172264532
0.2388907193903161
0.2509288330415923
0.26335374925676
0.27572221688545
0.2876429914027075
0.2993202085331046
0.3110437583572564
0.3235905706394106
0.3369778821647852
0.1865482707936661
0.1963239335633256
0.205585939926357
0.2110613587780682
0.2135900040345273
0.2161726522470353
0.2199647351931629
0.2250917849707029
0.2321263821331769
0.2413177292885781
0.253382711726978
0.2679559510513336
0.2826815660294978
0.2970789207749812
0.3110312355030949
0.324933334596317
0.3393779369673416
0.3547368464861063
0.3708622941941695
0.1962601302849811
0.2040816665920316
0.2111034821532977
0.2148092143804903
0.2166407743886397
0.2204128560929742
0.2258946507760084
0.2330184395400066
0.2424025465931467
0.2549478761563374
0.2698581161920607
0.2862716242765311
0.303337006611786
0.3202282882954362
0.3368922939530815
0.3534874452222172
0.3712007775219065
0.3895201463979699
0.4082044537065486
0.2039526391649688
0.209319715433605
0.2141943731701948
0.2175739275468156
0.220649953307072
0.2258052757702092
0.2324140092191003
0.241660947580259
0.2540044778808067
0.2692261194276909
0.2866565941899371
0.3061535984290642
0.3259178164012902
0.3455712039218093
0.3653665751330426
0.3850608853049578
0.405743637411117
0.427427277013831
0.4497336820362886
0.2101131412633383
0.2128986309475959
0.2157679435557806
0.2198722575934774
0.2246090834572719
0.2310832664036748
0.2397561310668115
0.2521384801120536
0.2674396142159824
0.2848079041014666
0.3054278555871981
0.3279148574937213
0.3499734044520906
0.3723927521543659
0.3955503596472217
0.4193033172242844
0.4437720414360794
0.4695311832716294
0.4967840449206733
0.2136644464663243
0.2145905664577937
0.2175694617472524
0.2222800916349421
0.2286507838152608
0.2372950624352571
0.2484416815610123
0.2631931552541696
0.2812710737609688
0.301678076450899
0.3248948661692176
0.3504194287363344
0.3753724696364585
0.4007683299528775
0.4279036033674385
0.4560933943226308
0.4855986059414037
0.5169032962161068
0.5502274886722595
0.2155058018618344
0.2153108053778587
0.2193028388332157
0.2251815740690829
0.2334953418412724
0.2443301719427629
0.2580621095812045
0.2754108343438746
0.2961701915691125
0.3191656007297285
0.3447227942074409
0.3729617188112175
0.4016905786761469
0.430684593491332
0.4625342477862116
0.4968451712413451
0.5317451384062046
0.5689292251664247
0.6095891886057753
0.216321555262199
0.2155175484597944
0.2203740623830431
0.2282693315915767
0.238935071347446
0.2520602952888631
0.2682957752925942
0.2877956346846778
0.3105036067514462
0.3361205530809808
0.364943684478353
0.3956561955028192
0.4285259756732479
0.4631186406854435
0.4995700383805633
0.5398332501762712
0.5817473522827646
0.6271367009506581
0.6826276027890158
0.2162003837794235
0.2153455956398589
0.2219916963454136
0.2317756957984149
0.2448030281459222
0.2604314821677679
0.2787136283976155
0.2999092190382753
0.3241754063819199
0.3530259001669897
0.3847086084585402
0.4192052736634178
0.4572280486869521
0.497630316335805
0.5392416157235762
0.5839110502944682
0.6349611470009734
0.6963658020442084
0.7747036493474108
0.2143027062416732
0.2144989616519665
0.2244384051885023
0.235679966404311
0.2507542881031679
0.2681522889487994
0.2884575556441257
0.3121898530078413
0.3385653432477789
0.3696704240677748
0.4041415040786903
0.4438175331654609
0.4867166190304417
0.5318890245653576
0.5800682065781838
0.6324249173573551
0.6955560920233902
0.7795757300469086
0.8786996921268043
0.2108544702155688
0.2131136796499454
0.2270142092166964
0.2398995279329384
0.2562657076016416
0.2757571688117098
0.2982973913297467
0.323850691129899
0.3529530885725834
0.3857406085946142
0.4239385085531406
0.4689988454343468
0.5169078190974286
0.5679156364182882
0.6226493637039324
0.6865823461118192
0.7682688535521957
0.881215856315588
0.9846665226239072
0.2074776247569303
0.2124789524931495
0.2287737704203699
0.2442510969788646
0.2621142844789307
0.2828746952655438
0.3070932947924256
0.3344873969516727
0.3663101444142829
0.4017475470221559
0.4439429401242903
0.4934635185572517
0.547661901860895
0.6047759353412282
0.6668919980408838
0.7473088261096379
0.8548327946956225
0.9900932639439782
1.0640948711472862
0.2051089036626872
0.2129148411302486
0.2308783176683705
0.2484559840676315
0.2680559515698261
0.2899633400149912
0.314915717905866
0.3441338590933291
0.3785852279526508
0.4174941112876393
0.4650585225873334
0.5197552651971747
0.5792773918347607
0.6431589399637797
0.7154304418599209
0.8145431876627285
0.9536774865844184
1.0927013746096506
1.111490214371469
0.2036521987369445
0.2129994593460741
0.2334879380725887
0.252722437371072
0.2736129639895112
0.2968893470786007
0.3237081486005175
0.3545784469253366
0.3900476156821463
0.4321761506976971
0.4852647678354687
0.5465429259598052
0.611098381508705
0.6840086538071688
0.7718688077616139
0.8928460444351186
1.0576761171338165
1.1896682963710654
1.1177745196146591
0.2020913530197387
0.2126975880169878
0.2364289355110071
0.2572592501118694
0.2791095399832776
0.3031094404604417
0.3321428260269409
0.3652223648067919
0.4021685659047844
0.4472242769271243
0.5044057279459424
0.5713038386160707
0.6421887606342831
0.7245545954373658
0.8282203918045875
0.9800203747385938
1.1709141864026762
1.2849704348224995
1.0463127692781262
0.2012725372949829
0.2131571085107077
0.2391514949878867
0.2612716947913512
0.284076271755892
0.3095284560223952
0.3399213621176945
0.3742037330203918
0.4146630895792869
0.4640921924821619
0.5252900091266715
0.5977968020510102
0.676656601089282
0.7683374071914805
0.8945734560167992
1.079669009272273
1.2793536717112517
1.304301419755933
0.950067490607288
0.199894146796078
0.2137138792982638
0.2411914176901348
0.2645136585255952
0.2892849678567121
0.3161026888875895
0.3469221108519972
0.3816943596737003
0.4248931074543183
0.4799163054722057
0.5456015156330035
0.6235176067706196
0.7110557949181823
0.8149418996022492
0.9675886862002728
1.1804909724052657
1.3659315052595995
1.27223709733268
0.873727909832966
0.1977837025733611
0.2137155070042755
0.2436781114212184
0.2681416297375418
0.2942246862727652
0.3216800535067202
0.3525512642257911
0.3888842210229054
0.4344479576067929
0.4941851253060481
0.5663094322426333
0.6493071155714764
0.7440689000046419
0.8672775845478732
1.0436977428473586
1.267023979764947
1.4240827682076902
1.2550798229181572
0.7978643157168079
0.196754497315052
0.21390267869013
0.2462201379478099
0.2718734688325766
0.2981363313613567
0.3263199725521493
0.3582302942984404
0.3963660096719138
0.4449100852580452
0.508304269480669
0.5853957606298011
0.674130368773171
0.774444285236115
0.9159486255788336
1.117118437723378
1.343688121894342
1.4288199093014016
1.1878033602506657
0.7246409425230922
0.1962020248869936
0.2143805662511517
0.2481443738849489
0.2749697838210292
0.3015240595936764
0.3306367305854656
0.3646487794116477
0.4039430549744654
0.4547399546454158
0.5206421568142701
0.6026671156306279
0.6986148640971864
0.8068283672750673
0.9606265931423674
1.182077610475097
1.4146899052485993
1.4372194714837694
1.1220835655993715
0.6616646308813916
0.1960464089158532
0.2151353789107427
0.2498427040897713
0.2776731321096755
0.3047889852951248
0.3349724746332442
0.3699154891642601
0.4101193689726232
0.4630901394489568
0.5322468560718742
0.6201793638552969
0.7209993898851383
0.8410803208489495
1.0113886658614335
1.25372874612782
1.4909629058632212
1.4699882941551174
1.090336866857274
0.6204684083062199
0.1964159743853558
0.2165424643034146
0.2520148025573324
0.2798729998652188
0.3076568955950879
0.3386986604528555
0.3739894749562881
0.4161651682878332
0.4713815798873613
0.5443982963838442
0.6348363285081153
0.7399396676163703
0.8741094798866258
1.0590035142283574
1.3134160157790988
1.532160815064185
1.46788277197574
1.055734971462159
0.5927818770309798
0.1963797936978569
0.2176788110480702
0.2537017269697184
0.2815874572610077
0.3099331586988629
0.3415402669789876
0.3778388000283929
0.422822893718458
0.4792291779920921
0.5545669295261058
0.6489913794879859
0.7623384465830472
0.9090941082629188
1.1000585887129908
1.3625149196531712
1.5339875050932217
1.4115478832234996
1.0016387317738589
0.5652632044515861
0.196107830500273
0.2185714007340805
0.2547728764460341
0.28297671646174
0.3119581018720047
0.3439388682096591
0.381078836879687
0.4289584833427224
0.4868713738617807
0.5635246757247752
0.6620686856045236
0.7813863392164204
0.933041074403624
1.1366143061354432
1.4167954216382217
1.5387454415910826
1.3572940045536943
0.9501836414874476
0.5406122917720536
0.1956902258250995
0.21922877637573
0.2562868428658939
0.284709966819185
0.3143807129727849
0.3466979345302132
0.3845368186411986
0.4340180803456596
0.494813930556157
0.5744460405303623
0.6749345568972068
0.7973339253288422
0.952910074081249
1.1760727519462613
1.468492941426887
1.560002177507967
1.3448292712154428
0.9185570623092272
0.5192887757287579
0.1956607940516941
0.2201590652908956
0.2583692466287918
0.286596034023702
0.3167095547548873
0.3496180410091418
0.388004476950626
0.4375936105526342
0.5006510728754009
0.5841388465898574
0.6879615905657822
0.8145487489285712
0.9772697884091098
1.2172148323245986
1.5112352829679214
1.5879321919389275
1.3458130680957407
0.8958898169584506
0.5085757679949952
0.1963332466107445
0.2208592637329974
0.25962781388805
0.2880830303989491
0.3183484565604111
0.3520066983339496
0.391319967586589
0.4409127693378463
0.5053376496667193
0.5904184782622866
0.6956756309931693
0.828376916732882
0.9972554376398076
1.2510766542425893
1.5411982545282703
1.602859787384202
1.3483970731744044
0.8794373806439495
0.4973679233194459
0.1970799617350328
0.2214422592286025
0.260595268286286
0.2899116235907304
0.3205217306576435
0.3544908882765702
0.3940527030023804
0.4442605894374942
0.5116129172289635
0.5982160804341685
0.7043198240201316
0.8415631482719486
1.0116371287082475
1.2749610433357768
1.5654598878676116
1.6176213432904198
1.351374717938348
0.8660206045903187
0.4847579288342175
0.197931382582056
0.2225551413727479
0.2622903165505252
0.2921540173736947
0.3226247908574536
0.3565245647891903
0.3962667524008766
0.4475017515038904
0.5173834365677803
0.6054869371129513
0.7146458911243381
0.8525684383276408
1.0223792176869415
1.2973341195494197
1.5956696616050867
1.6339320150524372
1.344505524948641
0.8568195404708833
0.4802556261422619
0.1989100011593514
0.2235198037027529
0.2636530692588502
0.2936920879647895
0.3234008682093692
0.3579147373204049
0.398127258106306
0.4501010165087559
0.5214986961555191
0.6099718058688307
0.7201507185386511
0.8614825775922408
1.038160933055991
1.3198678342457364
1.6168949521031108
1.64273802474215
1.340304885332848
0.8538048839696423
0.4797757200435197
0.2000233942586255
0.2244612170074324
0.2639793718456124