/*--------------------------------*- C++ -*----------------------------------*\
| =========                 |                                                 |
| \\      /  F ield         | OpenFOAM: The Open Source CFD Toolbox           |
|  \\    /   O peration     | Version:  2112                                  |
|   \\  /    A nd           | Website:  www.openfoam.com                      |
|    \\/     M anipulation  |                                                 |
\*---------------------------------------------------------------------------*/
FoamFile
{
    version     2.0;
    format      ascii;
    arch        "LSB;label=32;scalar=64";
    class       volSymmTensorField;
    location    "0.0023";
    object      tauij_LES;
}
// * * * * * * * * * * * * * * * * * * * * * * * * * * * * * * * * * * * * * // 
 
dimensions      [0 2 -2 0 0 0 0];
 
internalField   nonuniform List<symmTensor> 
13597
(
( 0.1641400404000172 0.0409734270270139 -0.0370141587907917 0.1450238931413492 0.0605521743236405 0.1457024226623556 )
( 0.1688030037631951 0.0434508539553026 -0.0383961287805683 0.1414973390649925 0.0587354740962541 0.1397649771481401 )
( 0.1753566777285674 0.0478186901895435 -0.0395550192999068 0.1328202705360039 0.0554483576993214 0.1287730043380812 )
( 0.1828926219998426 0.0524934221500087 -0.0399880425502233 0.123231695001632 0.0511278849878675 0.1164739466930332 )
( 0.1891162603506587 0.0558292265881102 -0.0402428764072694 0.1169455082984491 0.0471485753484048 0.1075494091151699 )
( 0.1942080205139375 0.0583021782687432 -0.0399280826387591 0.1129047567398932 0.0436406547638946 0.1002549006679492 )
( 0.199706664984291 0.060224460288368 -0.0389102823829733 0.1097207023693166 0.0402967228763907 0.093758577914105 )
( 0.2054841219640951 0.0614380757591972 -0.0378066487186378 0.1070132810154828 0.0368027855182623 0.0880679230241688 )
( 0.2113475471413587 0.0621385546021539 -0.036639350579516 0.1051473149104519 0.0338034870738184 0.083086509508217 )
( 0.2172985576788777 0.0617813556028152 -0.0355407878690777 0.1031079812270593 0.031332868355367 0.0792403077187301 )
( 0.2240684141596667 0.0605416121835769 -0.0342175192434071 0.100281173604376 0.0292097204374456 0.0764822885578374 )
( 0.231694817023883 0.0583940127012296 -0.032877503840704 0.0976693500175916 0.0276284004943402 0.0749356632954858 )
( 0.2392572797354267 0.0547791062061775 -0.0313954951242241 0.0943127380200579 0.0270845309361179 0.0752127449964273 )
( 0.2469824085050333 0.0503220821677499 -0.0294133703107637 0.0906162874895361 0.0273809893710529 0.0769053308198458 )
( 0.2549914276887912 0.0454318825049412 -0.0267051347472446 0.0869890506335587 0.0282979498372607 0.0799524075777006 )
( 0.2636655536964822 0.0398944081387909 -0.0233791980512111 0.0832740165735953 0.0301659934220187 0.0852478099156638 )
( 0.272139549627456 0.0337771538963025 -0.0199891254893889 0.0791516902350105 0.0325362986590117 0.0922736443664261 )
( 0.2789645377131433 0.0272867293110641 -0.0161290475203794 0.0744659862567232 0.0351762274352642 0.1001900274687042 )
( 0.2864307916064764 0.0207492870330383 -0.0121647698628947 0.0713232801427494 0.0377241516356144 0.1094308585227489 )
( 0.1786263537282203 0.0430734525594945 -0.0408117829471561 0.1591953795634448 0.0490646514802236 0.1277809524987833 )
( 0.1844817798956663 0.0458003252300468 -0.0401467007397186 0.1564686786441433 0.0464330318246219 0.1199231035897353 )
( 0.1912978944914233 0.0509723015979012 -0.0378350992082521 0.148386051863427 0.0427564822953033 0.106797412819407 )
( 0.1988292604338487 0.0569787724130502 -0.0343743440609187 0.141747136602398 0.0384385683382232 0.0951804025036011 )
( 0.2032000887930238 0.0607789887806644 -0.0311674562834275 0.1386032788638682 0.0346535977317805 0.0878846253463159 )
( 0.2058699328501229 0.0639066158639623 -0.0277600485404167 0.1364935537890765 0.0308949170430274 0.0818924422575298 )
( 0.2078339729214771 0.0668397882588617 -0.0242489757783148 0.1343228831462003 0.0276406012170465 0.0770959212167848 )
( 0.2096366268402614 0.0691189063465494 -0.0201324501632687 0.1326125682054018 0.024911048189038 0.0741808207322271 )
( 0.2119947219041283 0.0708767740490836 -0.0157050103402977 0.130533820406294 0.0228121301938654 0.0727323307871752 )
( 0.2125092965976322 0.0714100779853686 -0.0111787147092249 0.127034241263039 0.021628868688956 0.0729115459923909 )
( 0.2124569252019955 0.0712124691281555 -0.0057648926163329 0.121954107682165 0.0216128077865687 0.0752430166078834 )
( 0.2123724270890795 0.070219971114428 0.0001669791482911 0.1159796370057505 0.0223975745477254 0.0797328065124927 )
( 0.2113741004855024 0.0680492041066888 0.0070518960937099 0.1090226715834714 0.0242802227286821 0.0868954835958473 )
( 0.2108177748918693 0.065486328225393 0.0144699359087374 0.1016608562214455 0.0269350370976779 0.0964640158581098 )
( 0.211132684999042 0.0632402947520482 0.0216014151955289 0.0950638231007136 0.0300020821333738 0.1073648997391879 )
( 0.2120032660935196 0.0612327402010819 0.0283173476202475 0.0890249497158864 0.0333682364990137 0.1192021573216776 )
( 0.2128697087085838 0.0592337713001867 0.034280007384844 0.0836169074274708 0.036035059216304 0.1309977567907619 )
( 0.2139020489768065 0.057409315527582 0.0400094564471838 0.0785062687702423 0.0381841121005188 0.1433379750571409 )
( 0.2164271002261538 0.0562543453100097 0.0446456991560844 0.0746121843124253 0.0401454166904522 0.1557618686287641 )
( 0.1880658735797996 0.0433148816608401 -0.0334196223219687 0.1705214238101448 0.0373622309082595 0.1128501897881772 )
( 0.1914288151335757 0.0446638249936862 -0.0289931425002401 0.1690154958518163 0.0334104395105567 0.1044071727383327 )
( 0.1938750332367905 0.0485265907601979 -0.0229593199544635 0.1631877625606027 0.0287966781257733 0.092501524543333 )
( 0.1939316643323256 0.0524109012305511 -0.0169826294525508 0.1598376316673085 0.0236021385583728 0.0842551504451798 )
( 0.1904913371076593 0.0539043292089101 -0.0121779903907737 0.1591906830632717 0.0192024854775952 0.0800119839233258 )
( 0.186420682276497 0.0556290587404561 -0.0073482219983632 0.1587826758310521 0.0160065892401709 0.0775351869041065 )
( 0.1812635761034206 0.057122003209602 -0.0028522656279956 0.1571406286911285 0.0138532276722593 0.0768213897080816 )
( 0.1749834535029688 0.0583205243456805 0.0022596459333936 0.1559379973844362 0.0124548872816353 0.0784847626872563 )
( 0.169720493922926 0.0597683383547318 0.0080572701568246 0.1532971172101973 0.0124832490612022 0.0822311576900686 )
( 0.1644460831786409 0.0604599561901624 0.0145672802144285 0.1479273430948847 0.0139949999144788 0.0887580213737069 )
( 0.1591299817467799 0.0610387138193055 0.0218870109004628 0.1415215992486341 0.0164930089082599 0.0979463147749191 )
( 0.1550573291549304 0.0618173266069857 0.0297478428053189 0.1338454647414604 0.0196900578474811 0.1094002361820332 )
( 0.152343014760053 0.0626163014727282 0.0375461618915485 0.125285228996232 0.0231217071332287 0.1228535975275012 )
( 0.1509027031432371 0.0639562533709355 0.044051160923872 0.1175191280211891 0.0259435784695726 0.136739695950436 )
( 0.1504912955868148 0.0656714719119284 0.0490839101954782 0.1112908677128885 0.0278907574913956 0.149742486968881 )
( 0.1509253888378015 0.067808242377668 0.0525933074579747 0.1063467793830481 0.0288378591976506 0.160784370259042 )
( 0.1517374351434453 0.0701134271599782 0.0547414079751746 0.1026445107892446 0.0285660323020715 0.1698854527396072 )
( 0.153327464486615 0.0727800534944743 0.0557459219041914 0.0996690514954875 0.0274538258832448 0.1779691897377404 )
( 0.1561067543349126 0.0759387594983008 0.0555047324310696 0.0969337627075938 0.0258369574390678 0.1844309751257062 )
( 0.1880690544317773 0.0383082397938989 -0.0202064689459551 0.1783047754284823 0.025154815639783 0.1032747816228246 )
( 0.1860871319003851 0.0366085258538039 -0.013629075386129 0.1781099138386819 0.0198453310853816 0.0971882789757961 )
( 0.1802338358283036 0.0367002241522937 -0.0071773108169023 0.1759317813378886 0.0145795739367268 0.0899545678363635 )
( 0.1705558586641191 0.036928223195404 -0.0018838069626823 0.1761593690563087 0.0090739463463876 0.0868035461278002 )
( 0.1595457702421136 0.0359067183416294 0.0024366482332092 0.1780656127909421 0.0048724046875818 0.0873438130030233 )
( 0.1494175503035898 0.0360177982435876 0.0069095915822408 0.1798686575258868 0.0030069705880138 0.0895257688428346 )
( 0.1402372861768202 0.0368085290428283 0.0118640057649465 0.1801973881362347 0.0026613086732023 0.0936510765162852 )
( 0.1323003070347116 0.0382861735009153 0.017521794095036 0.1796546534703164 0.0035471683326271 0.1004369493859384 )
( 0.1265981922124242 0.0412092276702583 0.0235846069585406 0.1767764500465256 0.0060451488553348 0.108706421709448 )
( 0.122913059930813 0.0446658500248642 0.0302129881551819 0.1712252161020025 0.0093709994782114 0.1183008706538644 )
( 0.1205932831512332 0.0484967996714601 0.0368011392429994 0.1646406433597216 0.0128576908872975 0.129330055901208 )
( 0.1207584290656715 0.0532717787070371 0.0426110126907296 0.1567538764131495 0.0160261752726371 0.14114929616298 )
( 0.1223878064985734 0.0583788773587447 0.0467749028144997 0.1482761426850488 0.017739607812158 0.1523765440236804 )
( 0.1252886199632605 0.064077481284605 0.049085421176079 0.1420387070220186 0.0179577756969309 0.1619243922593459 )
( 0.1284309069260572 0.0693349560003386 0.0499288518706291 0.1379717936813946 0.0169681098266734 0.1687287398546294 )
( 0.1311391305945208 0.0741689149457298 0.0493272507996791 0.1351312250272878 0.0148294072868889 0.1726912180621587 )
( 0.1341023270907945 0.0787536643733054 0.0477707445572993 0.1333310223223372 0.0120464826034786 0.1747513437534083 )
( 0.137381808638498 0.0834649001304962 0.0452172418803847 0.1321320417507851 0.0086760779152941 0.1753441700120417 )
( 0.1409918204479773 0.088709192081425 0.0416594853087968 0.130821891062509 0.0046728025172663 0.1747148794685592 )
( 0.1804062142500592 0.0271053187920597 -0.0080360190199247 0.184253100581499 0.0132532178463281 0.1023156563354903 )
( 0.171317094606498 0.0214687362634789 -0.0020488525722469 0.1845707613447628 0.007530064055137 0.1004381740912644 )
( 0.1573427451780639 0.0181255302489514 0.0030178461920782 0.1864236901698729 0.0018739106361681 0.0981774594801289 )
( 0.1422383563192984 0.0161023440472305 0.0074677699009073 0.1912746232554091 -0.0030556099747418 0.0997582947822955 )
( 0.1298272338957854 0.0147526938876094 0.011895744743825 0.1963024079036466 -0.0057499326843395 0.104241768811527 )
( 0.1209018192869696 0.0155447134694731 0.0169346544982288 0.2005707091629255 -0.0060381980101091 0.1098362513000637 )
( 0.1147103819549892 0.0178371615814275 0.0231299675575581 0.203065785706558 -0.004508888842782 0.116898947423682 )
( 0.1115948808123253 0.0220278733805446 0.0297974428684068 0.2037177887037203 -0.0014875678237768 0.1254052512580363 )
( 0.1107560699841185 0.0278349904974929 0.036064498184252 0.201579417090002 0.0021489703189121 0.1339838818368908 )
( 0.1119979679684743 0.0344429644006709 0.0417584253625533 0.1971049780377508 0.0054157300017282 0.1419501454841918 )
( 0.1148792308485147 0.0420034733676288 0.0463311882013414 0.1909139556215152 0.0078460004628549 0.1501329205145078 )
( 0.1192384044152804 0.0503161452903014 0.0491973658025508 0.1842467162287875 0.0086301556972611 0.1577527799330286 )
( 0.1238324132447218 0.058756938741491 0.0496635581391593 0.1785300809611004 0.0075933548315128 0.1633574243130835 )
( 0.1285046252883886 0.067183029234681 0.0483227132365054 0.1748435881355672 0.0052561682072918 0.1668556755850227 )
( 0.1327280050101828 0.0741683715665238 0.0461859622806071 0.1735603926499491 0.0020417484958307 0.1679439259336524 )
( 0.1363439930524383 0.0805735835865204 0.0431807848677921 0.1734391767760242 -0.001731825742552 0.1669949252955391 )
( 0.1396829853005116 0.0867418332016889 0.0396320450714691 0.1736283718730558 -0.0056536008480211 0.1649302542672809 )
( 0.1427445159978922 0.0927541521370228 0.035839625778948 0.173989154768144 -0.009687081025984 0.1622273607444615 )
( 0.1459666429590035 0.0992725884663437 0.0313315527542823 0.1739082816014278 -0.0141044406967122 0.1588300104066612 )
( 0.1668641701627364 0.010773403316665 0.0003032525581996 0.1877722236290512 0.0030712018019761 0.1094304678576475 )
( 0.1524124520723604 0.0023217131736324 0.0047872745143651 0.1897142725654917 -0.0030290403815132 0.1114632710356558 )
( 0.1347626865371572 -0.0023027745313081 0.009728532768277 0.1963126717060438 -0.0085003924068082 0.1129935429494221 )
( 0.1212257810249141 -0.0035064090026144 0.0153107140535779 0.2061597673428286 -0.0119596480435301 0.1175251543088412 )
( 0.1132709146451298 -0.0024289219864874 0.021527186492648 0.2142574976383167 -0.0125249345059922 0.1236976153013578 )
( 0.1102929499883019 0.0008390609487216 0.0287378075398834 0.2207730834873937 -0.0109123266823703 0.1303781997727306 )
( 0.1099619535819221 0.00619282085054 0.0365425304999108 0.2251223635058462 -0.0080559587912187 0.1373944472598166 )
( 0.1120805984213492 0.0135840455122156 0.043697953047734 0.227300518715929 -0.0043563113882549 0.144898805788432 )
( 0.1157352468719169 0.0219444920270287 0.0495110193322628 0.2266318740371474 -0.0011035444924658 0.1519615215097659 )
( 0.120123517259668 0.0317129798375935 0.0534225988073937 0.2236121472000253 0.0008274799536742 0.1579613601070063 )
( 0.1247477433450782 0.0421681812481377 0.0548633952578244 0.2193514866431526 0.0010519934198611 0.1627158692888939 )
( 0.1289853002410951 0.0524683496588172 0.0538196009332955 0.2155589150844857 -0.0009379211585274 0.164576329486735 )
( 0.133171550425985 0.0632673972944986 0.0509069461584886 0.213238540550594 -0.004087535353684 0.1650038416606228 )
( 0.1369410010640739 0.0737551392201752 0.0469753668011761 0.212345483637279 -0.0076596846982693 0.1643292031688151 )
( 0.1403018331674873 0.0823894471830403 0.0431531762385822 0.2134914963363393 -0.0116677623501977 0.1621077451932897 )
( 0.143094210595904 0.0899186989530726 0.0393602702806846 0.2153271142317287 -0.0154396428145807 0.159080390091817 )
( 0.1457270363726346 0.0972786685680597 0.0354173552737763 0.2172986179537852 -0.0190482404266176 0.1561052915247535 )
( 0.1482871174273697 0.1046473699234417 0.0316763030095936 0.2190648678522147 -0.0223441617069759 0.152986503321277 )
( 0.151277900144641 0.1124183936602114 0.0276504657530646 0.2195986770368272 -0.0255513564732372 0.1495746658355053 )
( 0.1498072570443092 -0.0082095152749564 0.0055418662795426 0.1889586122329644 -0.0056033913514782 0.1223850514979105 )
( 0.1341148828615916 -0.0168424450638954 0.0102420503258875 0.1939124611869969 -0.0113668654602017 0.1269632427124231 )
( 0.1197374974265757 -0.0194724703600705 0.017132156500273 0.2066776954064492 -0.0159521878407226 0.129692531187749 )
( 0.1123558603076671 -0.0179125661673195 0.0253604003783285 0.221254672564753 -0.017698011198437 0.1351390635207993 )
( 0.1107908589302996 -0.0137987402691667 0.0340138593088325 0.2320307052633682 -0.0163918979016968 0.1415785519668127 )
( 0.1131812735351286 -0.0069457385733747 0.0432370373044415 0.2408053697364428 -0.0134982422999935 0.1481826336255244 )
( 0.1168381631945218 0.0017226749823564 0.051547874151288 0.2463556770803417 -0.0100586081092918 0.1545652968748381 )
( 0.1213094477556137 0.0116382528015124 0.0577185138217951 0.2495936893385587 -0.007432591749396 0.1602599823648152 )
( 0.1258751588455222 0.0221493465207284 0.0614774139180755 0.25074100789085 -0.0057908922287074 0.1652435697024731 )
( 0.1296024783172992 0.033971278356514 0.0621909001343572 0.249358475805418 -0.0053666789018559 0.1683253119367467 )
( 0.1327850329341375 0.0468854705433062 0.059711705263199 0.2484033113671414 -0.006963161802445 0.1688473693496667 )
( 0.1353882511799289 0.0596738248538024 0.0552964141798309 0.2483624891804625 -0.0102419067706491 0.166709685567215 )
( 0.1381164002821499 0.0719686281577695 0.0503258823870893 0.2491886632324596 -0.0142012029357289 0.1639393841666667 )
( 0.140687367605626 0.0836604805116889 0.0453718083693031 0.2512375608789118 -0.0179578820149328 0.1610023451299392 )
( 0.1437060081004526 0.0941957174702146 0.0410353681743055 0.2543385461480359 -0.0213829647452282 0.1574119017141633 )
( 0.1464093287505573 0.1035383128117687 0.0374548996306834 0.258172579844627 -0.0243449209180635 0.1539165302304886 )
( 0.149159552706005 0.1125044099642324 0.0341573464394375 0.2616848466351036 -0.0270320634014802 0.1507148668436094 )
( 0.1527518211813223 0.1219305619723444 0.0309067474412651 0.2643085305559233 -0.0293768176641541 0.1475862814961868 )
( 0.1572614652506818 0.1317008760107944 0.027695610048206 0.2652543425394082 -0.031510584995657 0.1449393387527417 )
( 0.1356290213663417 -0.0256940446165172 0.0103495796939334 0.1898681432084449 -0.0122984789326229 0.1378178388775022 )
( 0.1228293128981481 -0.0327749950201845 0.0172201219970317 0.1980376089247328 -0.0169574210003384 0.1428834564762867 )
( 0.1145368392164928 -0.0315851090474807 0.0272700213142091 0.2164491397669184 -0.0204752614569972 0.1454130809490569 )
( 0.1132236496306281 -0.0259116137055551 0.0384767076655769 0.2354852617103299 -0.0207046473498563 0.1507669489927509 )
( 0.1163963280934515 -0.0184590575195984 0.0490052110156037 0.2488108162577624 -0.0184156456072404 0.1569162440266437 )
( 0.1214072706174175 -0.0087679099451254 0.0582188622936971 0.2586987771259314 -0.0153195326571941 0.163000023543166 )
( 0.1259123890568753 0.0025892495976486 0.064865443332013 0.2651020903226914 -0.012410634598039 0.1681470142562285 )
( 0.1301697243725097 0.0141465657865414 0.0684352586350565 0.27019309568068 -0.0112473573071069 0.1720481632056774 )
( 0.1333571886468366 0.0261994200401253 0.0687051204230461 0.2741347028588152 -0.0117214348627005 0.1746229740240719 )
( 0.134227358726228 0.0399888252297528 0.0657294697326688 0.2753554353705499 -0.0124489705601874 0.1744178010216479 )
( 0.1354222936358063 0.055026684259134 0.0605336755515586 0.2779700857591942 -0.0147850752388027 0.1719633712580257 )
( 0.1373077190191003 0.07030456969523 0.054429218528256 0.2816764910963252 -0.0182783534788091 0.1680216745346965 )
( 0.1392625684945058 0.0846190153212746 0.0485644520323296 0.285360507697193 -0.0215478741159968 0.1627930824273737 )
( 0.1416986794558104 0.0979744308270677 0.0436503458455391 0.2905838281270103 -0.0244216495343648 0.1574874664884824 )
( 0.1447158333439511 0.1100347142188092 0.0398301111735245 0.29597743577665 -0.0268604663463038 0.1528249336884712 )
( 0.1483397327516319 0.1216811287452449 0.0367691853139916 0.3015208404065166 -0.0291386554046785 0.1490665431411209 )
( 0.152964630598498 0.1334496873902512 0.0340055191563885 0.3061768519644871 -0.0309955244128595 0.1456741015384133 )
( 0.159176098098944 0.1457751375120317 0.0312747331739065 0.3093084645058262 -0.0327634083594295 0.1429792414164312 )
( 0.1667893547350022 0.1582181082129099 0.0287259092121793 0.3102781665329868 -0.0346246121003805 0.1417979179187186 )
( 0.1265770979095651 -0.0400097235358684 0.0171697642136542 0.19015137953254 -0.0168878552025929 0.1524674193078408 )
( 0.1184695314321984 -0.0439264863789455 0.0274674200389433 0.2018794537661205 -0.020571495529986 0.1570983375017565 )
( 0.1159815679734653 -0.0382685363069861 0.0407085821202205 0.2258277190155872 -0.0228015866656441 0.1595109918359161 )
( 0.1190306496284111 -0.0284028164675238 0.0533582264880222 0.2480656417120295 -0.022028021298666 0.1644971727840423 )
( 0.1244485269073234 -0.0177148371688004 0.0639907881642996 0.2633520932880646 -0.0198589490291052 0.1705449826219459 )
( 0.129637085511239 -0.0064663249653254 0.0710788767475297 0.2746601840789426 -0.0176712837864869 0.1754773457703926 )
( 0.1327298680827402 0.006014399521916 0.0744217554449318 0.2828415348607035 -0.0160684325268205 0.1787693548321133 )
( 0.1344110305197176 0.0192001868031305 0.0742871494801116 0.2894909311735936 -0.0158628240817571 0.1811940705054731 )
( 0.1350124460294846 0.0327797930181847 0.0707630426864982 0.2959109489657126 -0.0174569333707136 0.1811909561138307 )
( 0.1343947141762151 0.0485415769347137 0.065268322516004 0.3019883273226944 -0.0188939398623837 0.1785278214786834 )
( 0.1342303892201442 0.0654666971398062 0.0588944833178022 0.3082068753341249 -0.0209736945335376 0.173418576329447 )
( 0.1357037380684884 0.0827311245263229 0.0524444446447796 0.3152901814128839 -0.0238468284410318 0.1673724497977989 )
( 0.1378474697447996 0.1000266786848925 0.0466220885419062 0.3223985569665419 -0.0259145052473581 0.1601114406213421 )
( 0.1415688962062057 0.1162094955558909 0.0420140096673715 0.3303771437823524 -0.0276761102175983 0.1531651130848428 )
( 0.1461883205762266 0.1306209409134588 0.0387438862187563 0.3381671966119954 -0.0296457730334522 0.1479195696350549 )
( 0.1519725130403776 0.1452461716698828 0.0361553654562862 0.3452805402765803 -0.0315343112982554 0.1441491883636974 )
( 0.1596678113002251 0.1603118025734809 0.0336400333786536 0.3511163619729324 -0.0329028248467979 0.1411400630784715 )
( 0.1694822145180866 0.1758715444914024 0.0312033414579452 0.3548832263036729 -0.0346487741819831 0.1397719951520062 )
( 0.181663206097651 0.1917406657852912 0.0287671562659897 0.3556434142921608 -0.0367999164081774 0.1409127662024701 )
( 0.1225818845357732 -0.0495251877069041 0.0272372530535662 0.1901563491371635 -0.0193159305619782 0.1649867859657417 )
( 0.1190670290301694 -0.0487022800021684 0.040875094245437 0.2065165804809081 -0.022163863284011 0.1687061420414516 )
( 0.1202906107243529 -0.038738246985855 0.0554238418823567 0.2352023784384251 -0.023575930535514 0.1711475998958763 )
( 0.1257398030274965 -0.0267115056947401 0.0673406001542137 0.2588049232427302 -0.0229458754561668 0.1765989019136795 )
( 0.1311783533655474 -0.0143319748773574 0.0755814976253386 0.2752758956914599 -0.0215099532722965 0.1818245988422413 )
( 0.1348759066372059 -0.0017473695049645 0.0797113859130919 0.2882737787702065 -0.0206572405540675 0.1860213133890733 )
( 0.1358229729649579 0.0113447009078913 0.0795254469561584 0.2992670491758955 -0.0205790813254517 0.1886123534359181 )
( 0.1343688540816886 0.0257646173482961 0.0756347834827549 0.3094597777868471 -0.0212167797255996 0.1892042238485449 )
( 0.1324964463789492 0.0410506839216539 0.0697450382634958 0.3189455555294364 -0.02239882238051 0.1870376274853989 )
( 0.1305289320080608 0.0582068151866228 0.0629707350562985 0.3291999528329647 -0.0237288875083775 0.1813044092362514 )
( 0.130043769175361 0.077409177736435 0.056024508270249 0.339365767610588 -0.0250422384012622 0.1728231353359529 )
( 0.1322605299416634 0.0976847550357143 0.0496244638332793 0.3494088063964747 -0.0265123319222434 0.1639079400428445 )
( 0.1361936190557883 0.1177332708491857 0.0443808510497532 0.3599372229943268 -0.0277686920257591 0.1553992913112348 )
( 0.1422039170250727 0.1366501710202523 0.0403701598127483 0.3703223147967517 -0.0292111071824104 0.1481864371097641 )
( 0.1497433850694781 0.1548987784335432 0.0374534656653285 0.3803344429148363 -0.0307593217065125 0.1432387054461562 )
( 0.1589946911710484 0.1732187633646112 0.035007656019451 0.3897448002931913 -0.0323572575752671 0.1400347529648659 )
( 0.1705187501361461 0.1919103453639668 0.0326441116685729 0.3975084184038007 -0.0340690249956486 0.1383682295670481 )
( 0.184515134839313 0.2109663214209429 0.0302536053425255 0.4020400216185894 -0.0363240228930128 0.1391386287584913 )
( 0.2017815316030868 0.2303671748588329 0.0275341218624107 0.4022937261429558 -0.039163503725201 0.1431407633453892 )
( 0.1221891984721116 -0.0538115099901285 0.0392473339535229 0.1898671927348786 -0.0206912640886331 0.1748831427569225 )
( 0.1221341931666784 -0.0486368025487601 0.0545252173371996 0.2100493731593128 -0.022687781493206 0.1768081351343556 )
( 0.1257389320697028 -0.0353731049022187 0.0688757158136355 0.2426692108260764 -0.0240039806045302 0.1807619713142446 )
( 0.1309717135256489 -0.0220148078011095 0.0782182513417928 0.2677114393324828 -0.0244246102923124 0.1870085938974318 )
( 0.1344716960948656 -0.0086542543831919 0.0828180385664858 0.2853579834632909 -0.0241139198695269 0.1912037246257535 )
( 0.1357003782941939 0.0045589859630259 0.0836736504226859 0.3003596220852071 -0.0240497223249417 0.1955202382651515 )
( 0.1344950490046761 0.0177623623965739 0.0805715083967712 0.3148423821571267 -0.0247961956963871 0.1975909282793468 )
( 0.131391356754054 0.0325730845509679 0.074334178211015 0.3293707493932793 -0.025642652180308 0.1959722958514143 )
( 0.1277836107663792 0.0493526066045281 0.0669117551711969 0.3428498065409948 -0.0264618249897036 0.1909731192761324 )
( 0.12472340636944 0.0683662142553387 0.0594767693686635 0.3566499568802023 -0.0268882411012587 0.1819956465425526 )
( 0.1250821779337084 0.0902199390309574 0.0526153793746545 0.3709550493019925 -0.0272030804307737 0.1706044902584435 )
( 0.1293101625579897 0.1143574495313361 0.0465810257114901 0.3849263278608917 -0.0276615291312899 0.1594686250035053 )
( 0.1359962431466396 0.1373435728641935 0.0421168400203547 0.3982779130642334 -0.0283390681827559 0.1505194242227642 )
( 0.1449105703178975 0.159402464813596 0.0385813210292102 0.4110781386042171 -0.0297496835375571 0.1437490650255888 )
( 0.1559753009776386 0.1818660466260108 0.0358318416450448 0.4238292191750309 -0.0310293297760089 0.139345017866412 )
( 0.1690229976535564 0.2041114892123527 0.033443247270621 0.4360752829278344 -0.0329845570932413 0.1373961990909674 )
( 0.1847027768133235 0.2268934078073405 0.0310065225817724 0.4460512466708961 -0.0355077526348516 0.1379917821911829 )
( 0.2036037404507885 0.2498339386433268 0.0282735067883808 0.4512334964003013 -0.0382850947999544 0.1411474905361099 )
( 0.2271608745537031 0.2735461482460817 0.0247611539031071 0.4511795337684448 -0.0416228306155633 0.1477397733031589 )
( 0.1234219600438402 -0.0539562968857214 0.0528018650888377 0.1894052117793615 -0.0216526344830884 0.1825961624207797 )
( 0.1261672163376115 -0.0454681800901412 0.0680831885914324 0.2126998751472369 -0.0231947247822047 0.1838150293584765 )
( 0.131032271363729 -0.030016144924301 0.0798702644609791 0.2486165232664722 -0.0251175561498994 0.1890876881758149 )
( 0.1344581531878412 -0.0160268251407524 0.0858878029914637 0.2749649209027878 -0.0265524116881609 0.1958423013160855 )
( 0.1355203892719108 -0.0025980814359008 0.0868522150072869 0.2943993338629413 -0.0270973773105851 0.2001748324136073 )
( 0.1332937899546437 0.0107660954490581 0.083945367018908 0.312293990921593 -0.0275377972242064 0.2034423511640391 )
( 0.1299500846779826 0.0242766567207522 0.0785273022082029 0.3298533559065559 -0.0281244786090417 0.2040156017335212 )
( 0.1256279797855565 0.0399860907492131 0.0709547693317759 0.3476997196725476 -0.0283750279904526 0.2005006328157105 )
( 0.1207915124837407 0.0580692465914225 0.0628846891866898 0.3658168830369337 -0.0285204887724256 0.1920318265145556 )
( 0.1186425414691353 0.0797143917138433 0.0553633199056809 0.3841656882481881 -0.0277682055857837 0.1801178524364282 )
( 0.1207433665578417 0.1045754063453236 0.0486978121769855 0.40279909061001 -0.0273724662930135 0.166730507300082 )
( 0.1273260801495481 0.1316738341401787 0.0435548843599248 0.4213041841475856 -0.0275392454429029 0.1550525088316881 )
( 0.1372634865685032 0.1586657918480707 0.0397093646183131 0.438187609990429 -0.0279811860136369 0.1460416832268979 )
( 0.1498418721888352 0.1848803425046361 0.0365294497131197 0.4541164810977504 -0.0296560463220496 0.139943926957914 )
( 0.1646486078033247 0.2112376763518971 0.0338661735320287 0.4703206975938017 -0.0314597123824777 0.1367812596004181 )
( 0.1812884960228767 0.237209656827642 0.0313716214625231 0.4854677199115809 -0.0339364710100426 0.1365557664556548 )
( 0.2011286793634988 0.263799479547713 0.0285200852567572 0.497298368272328 -0.0371194145168184 0.1394174011061993 )
( 0.2264986838058602 0.2917812761461454 0.0250726202778791 0.5034853601465001 -0.0406492234849188 0.1450394241186253 )
( 0.2584415179147935 0.3212293634011766 0.0203328122542998 0.5036232817947438 -0.044831743911953 0.154300735805369 )
( 0.1264820500718821 -0.0509047828625957 0.0666415446119352 0.1878799478661058 -0.0221582264100718 0.1886807862026011 )
( 0.129892384532136 -0.0393252246017908 0.0797490524509196 0.214844064148943 -0.0240059576511423 0.1911891093586092 )
( 0.1341612866725753 -0.0234261042979262 0.0873309576711281 0.2535560711021575 -0.0270175017998049 0.1969697802390052 )
( 0.1359709019389427 -0.0098756589451297 0.0900542620793244 0.2806857187145148 -0.0287051776902107 0.2036466466090422 )
( 0.1343664243423875 0.0030487246124651 0.0878051483885379 0.3029514515714278 -0.0298868061696164 0.207927406428096 )
( 0.1291544743683714 0.0165616427741944 0.0819365808091797 0.3238476097810641 -0.0305049083173716 0.2099346463396533 )
( 0.1232700324908195 0.0309332996655756 0.0747152094214102 0.3442719054491083 -0.0303191854397814 0.2089039666237051 )
( 0.1176766594608698 0.0474622070179373 0.0663055307034111 0.3663771783676604 -0.0299100506346433 0.2029193794346993 )
( 0.1132878528640743 0.0672087988652646 0.0583325689072419 0.3898006362378126 -0.0290163310243383 0.1915019875396551 )
( 0.1128453228220277 0.0914551376500783 0.0514729858659594 0.4123381895119886 -0.0274171069393088 0.1771544083025629 )
( 0.1174233158298816 0.1200455488536505 0.0451753491377069 0.4354550814716774 -0.0264904623747032 0.1622994277664734 )
( 0.1268785546530642 0.1503286485695874 0.0407754176887291 0.458454579692242 -0.0265953644983045 0.1504672131332858 )
( 0.1398499358665547 0.1809499013451705 0.0372892439654996 0.4798494691230466 -0.0275456625165989 0.1420235062028717 )
( 0.1562216153921095 0.2117826386888094 0.0342650593954371 0.5005381148459499 -0.0296673583220819 0.1372748773707753 )
( 0.1742458301646453 0.2415584353050706 0.03171888138286 0.5204627875774613 -0.0320370243055567 0.1358915192354786 )
( 0.1949157915794544 0.2713914589514742 0.0288615635141264 0.537961366662871 -0.0349670833948104 0.1372367038533702 )
( 0.2207757840453006 0.3034449971369794 0.0252499918542974 0.5525528309921133 -0.0388536419145029 0.1418521399271385 )