/*--------------------------------*- C++ -*----------------------------------*\
| =========                 |                                                 |
| \\      /  F ield         | OpenFOAM: The Open Source CFD Toolbox           |
|  \\    /   O peration     | Version:  2112                                  |
|   \\  /    A nd           | Website:  www.openfoam.com                      |
|    \\/     M anipulation  |                                                 |
\*---------------------------------------------------------------------------*/
FoamFile
{
    version     2.0;
    format      ascii;
    arch        "LSB;label=32;scalar=64";
    class       volVectorField;
    location    "0.0023";
    object      U_LES;
}
// * * * * * * * * * * * * * * * * * * * * * * * * * * * * * * * * * * * * * // 
 
dimensions      [0 1 -1 0 0 0 0];
 
internalField   nonuniform List<vector> 
13597
(
( 17.184183834701518 1.5862080530937146 -0.0221031979639172 )
( 17.182802846020383 1.6293599193981283 -0.0173056713826834 )
( 17.19191018346795 1.7194899910030117 -0.0098559920219306 )
( 17.208916872540073 1.8371044177456044 -0.0016472330570614 )
( 17.223050140783908 1.9376302198682829 0.0041236757098522 )
( 17.230867038344396 2.019727437334588 0.0082201538616458 )
( 17.24112536855918 2.1014183142012386 0.0111167981631645 )
( 17.253737401439817 2.1889327281971536 0.0127959558189445 )
( 17.268764182652173 2.2770709261408806 0.0139237644914913 )
( 17.28513181298601 2.3650944434193173 0.0141556318190707 )
( 17.301885966890612 2.462883297846453 0.0144447804378072 )
( 17.32361515136381 2.561954577236991 0.0146699763607709 )
( 17.348394707256883 2.659820091934508 0.0143000221466969 )
( 17.373465176523982 2.7634147897020447 0.0144331073525915 )
( 17.399359868362946 2.8702821307861326 0.0141898200509747 )
( 17.42776248686796 2.9763836180614085 0.0138481406438552 )
( 17.45990182159156 3.078187900853915 0.0145893622935963 )
( 17.493974202921788 3.180346913101199 0.0159450870808273 )
( 17.529371118664894 3.286697234067817 0.0184049336101219 )
( 17.057444320818355 1.5982028928218492 0.0039767121839957 )
( 17.038892459393843 1.6513632459221246 0.0118847891306457 )
( 17.02709518497573 1.766219026640741 0.0233802318553736 )
( 17.017387234176994 1.89847315958986 0.0343356282599027 )
( 17.00537676073544 2.000336453577779 0.039806966338577 )
( 16.991521511204695 2.0946642407489446 0.0440608913844602 )
( 16.981307399304672 2.190658490142224 0.04627210892756 )
( 16.97143279702829 2.291471386899295 0.0464048050235853 )
( 16.964149239956093 2.395761691117267 0.0461834244732631 )
( 16.957235675231335 2.5003724176298605 0.0461497755139279 )
( 16.949831477817813 2.6164883222983386 0.0456246472926036 )
( 16.942861489025006 2.740855737380201 0.0451006962128205 )
( 16.935598850317216 2.866654773436956 0.0453264498774281 )
( 16.931431545086987 2.996632720121587 0.0456653360082619 )
( 16.92972462703414 3.1241573477765385 0.046673284019001 )
( 16.9300236842126 3.24484351740375 0.0483491997245061 )
( 16.93137923750666 3.355888999842404 0.0505159537104928 )
( 16.93274917325023 3.4688366881106587 0.0535838791324806 )
( 16.938694251337044 3.5811222038921184 0.0578168285563949 )
( 16.93381811162543 1.6046267017066207 0.032224279362777 )
( 16.898083191333036 1.6646365660749567 0.0447756861925889 )
( 16.865143786815857 1.794272933961842 0.0601854795607455 )
( 16.83072756870433 1.934586026179658 0.0727831419369702 )
( 16.795852246466094 2.0387394059624526 0.0782893609243605 )
( 16.764100575734016 2.1435567759891088 0.0816146476590386 )
( 16.735079363067925 2.252989595678068 0.08299896628159 )
( 16.702074953877915 2.362899954929395 0.0837790077218814 )
( 16.670859372502367 2.479864280607151 0.0836704068960788 )
( 16.640734896221584 2.607677911721666 0.0827065820762782 )
( 16.608891431427335 2.742238821179986 0.0820501223658999 )
( 16.57682501747675 2.8871368434676485 0.0818782444661812 )
( 16.545411419215366 3.0373462471346007 0.0827559057056383 )
( 16.517183747241333 3.181221814271643 0.0845515256374729 )
( 16.492780591816846 3.3122658708412565 0.0869629165268423 )
( 16.471813209199535 3.4287978976395324 0.089926823442734 )
( 16.449734114264434 3.5329895223476733 0.0933039215018716 )
( 16.426688523572267 3.637000293178101 0.0971969665222717 )
( 16.41036556074838 3.74487207026478 0.101727144720305 )
( 16.81300565318114 1.6037778822800923 0.0641194376009573 )
( 16.76155171116902 1.669918667461721 0.0804057032096122 )
( 16.71040417296355 1.8047945983813836 0.095660275217888 )
( 16.654227189825807 1.948606410322539 0.1065323323548988 )
( 16.597203254221462 2.057949425197845 0.1120077661083025 )
( 16.544468166794086 2.1670134320695738 0.1143128535826798 )
( 16.48919372466469 2.285280012615807 0.1146173416942328 )
( 16.430604676133548 2.406204723431423 0.1146569762511662 )
( 16.376714262202526 2.5345437526928 0.1136865801391178 )
( 16.324185893220058 2.67475782752008 0.1115932498906729 )
( 16.266440427885588 2.8236575594280247 0.1100588560318275 )
( 16.21270117396411 2.97975100413416 0.1094485562113126 )
( 16.16207964067811 3.136178563066091 0.1095580825344406 )
( 16.109596902218232 3.284154153320658 0.1113032343746025 )
( 16.060194288987237 3.4102309347054325 0.1141312638158543 )
( 16.01484906776326 3.51777545364593 0.1170553322232724 )
( 15.970428122631214 3.6146401111701194 0.1201641456178664 )
( 15.923015801761288 3.711945725618211 0.1235646510035751 )
( 15.878213011963576 3.820604697012164 0.1274336819749021 )
( 16.69927778812276 1.5963612518434585 0.0946894430293053 )
( 16.63621580326861 1.6699064633927956 0.1108270058667058 )
( 16.5654342062513 1.809333114605226 0.1237950155960137 )
( 16.485933354418258 1.950878417939144 0.1319686745330062 )
( 16.40812949056779 2.0617669139863697 0.1352966243329894 )
( 16.332631461587525 2.173522799480307 0.1355152766672062 )
( 16.250616038803926 2.296827578091941 0.1341389200166079 )
( 16.167204239460286 2.424967868320319 0.1318136072161856 )
( 16.088235603409213 2.556659260006268 0.1291058487497327 )
( 16.0071938755801 2.699822510493609 0.1263987189618784 )
( 15.920979226126803 2.8581911696433817 0.124390571935728 )
( 15.837439171102154 3.020743644019716 0.1234681546775957 )
( 15.755736282774606 3.17734906592386 0.1237215909118532 )
( 15.672407278073356 3.3223137638200715 0.1249739808858709 )
( 15.59250754252812 3.439751012383393 0.1266893070543253 )
( 15.515849790249764 3.5442694254764806 0.1287154130599546 )
( 15.441853433140178 3.6436715313636254 0.1309668850660285 )
( 15.36831996424613 3.743240319523384 0.132992946174973 )
( 15.293922916668606 3.856689717825622 0.1349221972969316 )
( 16.593846532248943 1.581753215810615 0.1191086641756523 )
( 16.51708630525442 1.660629792663996 0.1335335631975988 )
( 16.422566523600292 1.8060312648079464 0.1430967104972467 )
( 16.320726690006417 1.9446142993920128 0.147383746126325 )
( 16.222220231323575 2.0546821560453856 0.1477039727894809 )
( 16.12423899390146 2.16917575742716 0.1450842325428543 )
( 16.020872632809816 2.291225358493598 0.141821705243678 )
( 15.911377373059384 2.418562904844238 0.1380132515544777 )
( 15.797460272816268 2.551520205910277 0.1342955613806501 )
( 15.680148558339376 2.7017690350722496 0.1311835702511543 )
( 15.5649247714592 2.862089074629562 0.1290114321380871 )
( 15.447310403451874 3.022139576944 0.1275632977611722 )
( 15.3321068885983 3.1777216008372307 0.1272098424762851 )
( 15.220918309016207 3.317864561612074 0.1273450822528262 )
( 15.110950864906716 3.433426071911463 0.1266997053070946 )
( 15.00950647987375 3.534978893166129 0.1261853950591716 )
( 14.910199591152727 3.633074852176135 0.1259047875230205 )
( 14.810626470099136 3.7335066705898057 0.1250236231021783 )
( 14.71046056368437 3.849997855228081 0.1240926299946847 )
( 16.488124560663014 1.5619173144950758 0.136595901554779 )
( 16.39559881003124 1.6464288103853957 0.1478279321351639 )
( 16.278776918860938 1.7930922585008782 0.1535429829610899 )
( 16.155488563104466 1.9255587840405752 0.1539532382338306 )
( 16.035922910645393 2.032740403718645 0.1516105769844845 )
( 15.910878460198978 2.1447093017928798 0.1474330219217622 )
( 15.78139187768762 2.265655522711052 0.1423347090427422 )
( 15.645075525209757 2.3927737224815973 0.1374547920863573 )
( 15.499412640913308 2.524721018514271 0.132609492136334 )
( 15.355842932817012 2.675414907653322 0.1289412562239054 )
( 15.209427864055778 2.835153741148365 0.1261302923151839 )
( 15.05687808168435 2.9953183201539675 0.1230193310294657 )
( 14.91297139763719 3.146155610446556 0.1207779862216101 )
( 14.77562165291567 3.2802032111071164 0.1185503174523243 )
( 14.639127971768367 3.3977738242689397 0.1155095760800768 )
( 14.512183279683317 3.49562575453436 0.1126773945431521 )
( 14.39014813869132 3.5908666730468384 0.1099248910170746 )
( 14.265271228598383 3.695763188809924 0.1066720175605095 )
( 14.14037518096929 3.816016352661007 0.1032661269121182 )
( 16.386342643659273 1.5384571860659566 0.1460560197902032 )
( 16.27589692035699 1.6233728438598878 0.1527969471798629 )
( 16.137051891085342 1.766304446922874 0.1558013340717098 )
( 15.991319366580637 1.892645956257996 0.1540011903588768 )
( 15.84752502069146 1.9970306618100555 0.1498432295162764 )
( 15.697293833263029 2.1077287369364424 0.1445133889823199 )
( 15.539483778837363 2.228223596517493 0.1379866349730787 )
( 15.378024837003649 2.350663466460021 0.1320625194024055 )
( 15.20444816937545 2.478940547339057 0.1265800334118623 )
( 15.032421974125407 2.6306809594026688 0.1213282057675325 )
( 14.85394387804006 2.789690458691998 0.1168501434770044 )
( 14.674252635513945 2.949861313193174 0.112167750144836 )
( 14.504254125503063 3.0987848998752248 0.1074050395161971 )
( 14.337946504468755 3.2243733453931185 0.1022898582985459 )
( 14.183498134211938 3.333922023053985 0.0972221490926313 )
( 14.03379373374378 3.4310954984615 0.0924380353975922 )
( 13.887306029880603 3.5297846368018133 0.0876663454032386 )
( 13.739954654063968 3.640840109528825 0.0831506796324268 )
( 13.593331845001394 3.766830241948123 0.078999683210046 )
( 16.28572555161574 1.5064615900226164 0.147726239745169 )
( 16.155239288140738 1.5866915258698735 0.1508538643065207 )
( 15.993841306115955 1.725110899605203 0.1522866442755699 )
( 15.827573908738344 1.84620390276918 0.1494867936353301 )
( 15.658334980175027 1.9503060814670787 0.1447352577663127 )
( 15.488013569040287 2.057362427023979 0.1382826558910892 )
( 15.308818142911916 2.171261322593318 0.1313920912785414 )
( 15.123450482863175 2.294599899227661 0.124728477185774 )
( 14.926866111822282 2.424264694588939 0.1181656647353403 )
( 14.718607372680822 2.5702273813229017 0.1106438022068273 )
( 14.511536154979542 2.7278718978001204 0.1034096903016516 )
( 14.31197921744 2.8846407038191755 0.097168499315024 )
( 14.112983877177616 3.030819146327126 0.0896290802912272 )
( 13.921961293652794 3.1538285730728264 0.0824128565567685 )
( 13.750597411830611 3.257693975015824 0.07661733127495 )
( 13.579202791939233 3.3565422522189734 0.0706185504735167 )
( 13.408715778969489 3.457051068981849 0.0651555897540126 )
( 13.238716774838258 3.5706961767528997 0.0613116283186135 )
( 13.06708180858678 3.702513666762704 0.0587238665229708 )
( 16.18066617247541 1.4721791420495625 0.1443729538976109 )
( 16.030357358471345 1.5525248515953003 0.1454765880275622 )
( 15.848540105433704 1.6843122343465184 0.1463213617717498 )
( 15.66428333252099 1.7948535910718586 0.1436067345475727 )
( 15.477049572201842 1.897256246841905 0.1376737360875987 )
( 15.286607027769383 1.996616129374946 0.130644046213664 )
( 15.083702517098333 2.0999584769998934 0.1230940847286657 )
( 14.869446620942448 2.219272267816884 0.1149265054733763 )
( 14.652138687409296 2.346364844740398 0.1066972157899192 )
( 14.42211469757168 2.4893520239132223 0.0971075885436651 )
( 14.191859462765876 2.6499367338108133 0.087582398069202 )
( 13.96932931401582 2.8079432927497905 0.0792472234977959 )
( 13.748803294993952 2.9480872177473056 0.070783627793501 )
( 13.540847351338977 3.069962836801094 0.0633669086938567 )
( 13.3456152717496 3.1730515048480665 0.0572195074596541 )
( 13.149978400889887 3.269350560794101 0.0517899518687519 )
( 12.953006434297508 3.3689433915170124 0.0477488942444835 )
( 12.758498355659327 3.483831498864485 0.0452664148899035 )
( 12.564108506998108 3.622794730990305 0.0436312699766351 )
( 16.078494958849436 1.437478031951818 0.1386605223068226 )
( 15.91300974691054 1.517201078232617 0.1393234643934408 )
( 15.707189441655494 1.6398811419834871 0.1401959461591495 )
( 15.508665435867435 1.7389081943941145 0.1365269133143502 )
( 15.30539001504798 1.8334146528938229 0.129387587735907 )
( 15.092154307387148 1.926259429256235 0.1215262380502905 )
( 14.868458281529673 2.020317360741546 0.1123750911186753 )
( 14.63520128030983 2.1293089419285884 0.1027152078975159 )
( 14.395749219563047 2.2566551416668967 0.0932185293801105 )
( 14.14928972077306 2.400031038839185 0.0819464954621103 )
( 13.897851372776632 2.5579357715841056 0.0713400062419911 )
( 13.64622984386656 2.7191616568479446 0.0619623164830284 )
( 13.410737182572982 2.855850530444245 0.0537399771107237 )
( 13.186114441624431 2.9758011169515632 0.0473789978359677 )
( 12.962329378006704 3.0788283863975416 0.0416936243327926 )
( 12.739364166995674 3.171577225292513 0.0373760065808496 )
( 12.518154822876689 3.271486762457459 0.034290650390692 )
( 12.303630089637696 3.3903485660499717 0.031862812185863 )
( 12.085998757017142 3.537627052241762 0.0302826642957376 )
( 15.976576292244951 1.396946790519911 0.1318298823522568 )
( 15.794227529240068 1.4740075484759267 0.1324618185157255 )
( 15.568727821050391 1.5893514709863714 0.1329194174100709 )
( 15.358031726882242 1.6763813342927023 0.1281847378494314 )
( 15.13802991897877 1.7587889781338366 0.120588865658328 )
( 14.905499164161007 1.8459019812077295 0.1109680883147582 )
( 14.669152420444426 1.9406489669526577 0.1008678651005753 )
( 14.418906862657424 2.0466285814178384 0.0901362525055412 )
( 14.160227137841405 2.171286386659516 0.0786991201064233 )
( 13.894037557291549 2.310372992479022 0.0665869054535103 )
( 13.622103151518882 2.46205441710671 0.0560105787767177 )
( 13.348907490121814 2.6162913883027104 0.0470142115729863 )
( 13.0892514501153 2.75391902219737 0.0390879754025772 )
( 12.839544848752189 2.8778854121284305 0.0335505708255969 )
( 12.590073936672637 2.978606499716405 0.028883410606818 )
( 12.347417761632162 3.066474535456257 0.0251484842044074 )
( 12.110245738387343 3.1672510359424093 0.0223889033245165 )
( 11.874497029664276 3.2957970233256244 0.0207391481565161 )
( 11.631866396903671 3.4537476216676937 0.0216117153614398 )
( 15.873417580478067 1.3479027976390048 0.1238052355783494 )
( 15.676494700921896 1.4213722892780762 0.1250689352197855 )
( 15.441101359104064 1.530923599298012 0.1254303510460536 )
( 15.215379598734472 1.6120799064532627 0.1193406695883614 )
( 14.982356817058806 1.6898360697879315 0.111074425667331 )
( 14.736315150379973 1.771497702674896 0.1006803807946399 )
( 14.484621600079564 1.8619072426761247 0.0892409559303797 )
( 14.215919461711264 1.960981517819377 0.0773763624130747 )
( 13.937902019657706 2.0771340706679533 0.0644769468922322 )
( 13.655213401257075 2.2162301574203007 0.0522016876584041 )
( 13.361028388243136 2.3702479520229893 0.0421065915559825 )
( 13.068746880723769 2.518036566116118 0.0336334740169644 )
( 12.78259226169433 2.6522087860807715 0.0267953882671397 )
( 12.50250655779847 2.772472760503615 0.0218333766842652 )
( 12.237922851687776 2.8654755429250884 0.0174311349374211 )
( 11.984388933868152 2.954112330170766 0.0146514276521712 )
( 11.72743652113833 3.0604560055281422 0.0138539539561355 )
( 11.4643938297848 3.195241082348291 0.0149213778475877 )
( 11.188483651889344 3.368498923467968 0.0198627513108374 )
( 15.773828192679668 1.2925220854933266 0.1155882428396286 )
( 15.570026301474464 1.3628016769900153 0.1176213249616464 )
( 15.322592161050952 1.4662916376368769 0.1180781701696135 )
( 15.08377834652925 1.543090906853314 0.1110450243602172 )
( 14.837131554110892 1.616049225647437 0.1017934780726294 )
( 14.58203310657374 1.6894610988870502 0.0910733694168004 )
( 14.316510022959962 1.7725821773691703 0.0783667937927088 )
( 14.038343239916475 1.8676433123076743 0.0649634217701086 )
( 13.741833811907062 1.9773325454854247 0.0515940843990495 )
( 13.4361260042751 2.1132020140050267 0.0395095602446952 )
( 13.119705619240165 2.2668986163331954 0.0295382831772389 )
( 12.80093775205599 2.416880610381793 0.0216879708135818 )
( 12.492367395650929 2.5505968249289843 0.0164415832678998 )
( 12.197010652793448 2.659637722348609 0.0121167463649222 )
( 11.917097847042143 2.746692441797624 0.0087040004276761 )
( 11.640432614094234 2.841321303729654 0.0079027718078955 )
( 11.357423483073186 2.959329830963595 0.0096369279131425 )
( 11.061663668662923 3.0960036138158427 0.0139311284830489 )
( 10.742528337247885 3.275747006541648 0.021409853646483 )
( 15.68147078444029 1.2373487369084677 0.1084638363503605 )
( 15.467039159624598 1.3046372229847842 0.1104888206703886 )
( 15.19986851052285 1.4020089219871996 0.1097941063722479 )
( 14.952143584125992 1.4676770735165992 0.1022736023275266 )
( 14.698528944441398 1.5328158410353203 0.091892305986808 )
( 14.43692657654052 1.6012266875895014 0.0797455949363121 )
( 14.15903999839867 1.6769570976657255 0.0665428461555004 )
( 13.865033328210734 1.7693244290202716 0.052331218945761 )
( 13.556224256697732 1.874929338702588 0.0390637494231134 )
( 13.231372587603095 2.0031223740493105 0.0275035128085 )
( 12.889357059150012 2.154794613303184 0.0180631974524824 )
( 12.544112092922754 2.30238377085208 0.0117088530235207 )
( 12.212635068286932 2.435555090901438 0.0078244649988718 )
( 11.907384320029816 2.5396593761624744 0.0046328556708602 )
( 11.61314186928555 2.6249912226526546 0.0036670638849633 )
( 11.311172265158753 2.722632099982374 0.0049837863273821 )
( 10.993870577840504 2.845226117155572 0.0087147241579014 )
( 10.656277316097734 2.9941439204543068 0.0153404791723199 )
( 10.30209987671118 3.193663442684186 0.0238780653463292 )
( 15.59511254236466 1.1835125204535062 0.1022079530829017 )
( 15.371690174794354 1.245904314391975 0.1036485530371111 )
( 15.091685774283278 1.3351968277054975 0.1015367959518981 )
( 14.834368404359846 1.3881645170914176 0.0934032505537469 )
( 14.574696502463482 1.4424035295955306 0.0818323927798039 )
( 14.304449460323092 1.512133015986735 0.0681866521349384 )
( 14.01594922356204 1.5796166941282634 0.0544000661303069 )
( 13.703745851424346 1.660477605158113 0.0405654597607543 )
( 13.377271909884268 1.7668969881454868 0.0279442751771974 )
( 13.034765245706762 1.8894135456628116 0.0167416723346116 )
( 12.663883333336075 2.0410575002173537 0.008398373930128 )
( 12.291743596207336 2.1890734741351108 0.004074557893454 )
( 11.950754146310278 2.312567301868276 0.0014142455229052 )
( 11.637603823325 2.412385296267221 0.0001964163245727 )
( 11.324858925050854 2.500858628126226 0.0014803000965216 )
( 10.994830008458754 2.6011345806240644 0.0045061752877771 )
( 10.638073545657852 2.725675164619151 0.0112597382726244 )
( 10.257371628912544 2.890745375332797 0.0181713457292514 )
( 9.88763827233516 3.12946971242266 0.0241795976281102 )
( 15.515625723350007 1.129321466867501 0.0963983696049493 )
( 15.28076867826673 1.1830578431775327 0.0965378032549591 )
( 14.993146115096128 1.2660626647139466 0.0937385878653495 )
( 14.733872628698606 1.312103624366866 0.0851527670322774 )
( 14.465876617692777 1.358410711967336 0.0731452444513444 )
( 14.180482458168443 1.4207317823024848 0.0586116421771946 )
( 13.87946588481385 1.4780082448894276 0.0437907807320603 )
( 13.560982422575025 1.5546160589871134 0.0303318654825042 )
( 13.215924475293727 1.659725790787338 0.0183948491798605 )
( 12.849236312607946 1.7723289896890515 0.0076369614981537 )
( 12.466695949335762 1.9167524326003067 0.0009745674252112 )
( 12.074472104061645 2.0744794685659627 -0.0014845011541503 )
( 11.71959613168499 2.193226721166881 -0.002591961161119 )
( 11.38858126074834 2.283500971923256 -0.0019659893433995 )
( 11.046146556140345 2.37436227413706 0.000432290142053 )
( 10.677432846735448 2.472672967009492 0.0047370085738826 )
( 10.284208980709996 2.6055200995558003 0.011421899579266 )
( 9.88352528841466 2.793286262438025 0.0161993976061112 )
( 9.51618736830144 3.079848413783506 0.0206860865070134 )
( 15.43884425532534 1.0732333273159331 0.0909633284841416 )
( 15.196683787051088 1.1188209078403972 0.090008404312673 )
( 14.902223873782678 1.1923697929193755 0.0861305069077869 )
( 14.642408255067656 1.2320426000725266 0.0771127803256797 )
( 14.368165334713034 1.2765504207853413 0.0648481158614299 )
( 14.069413957091776 1.33050420752506 0.049435452697674 )
( 13.759776954308297 1.3747180538522477 0.0341873326024151 )
( 13.429012258242809 1.4497608822734185 0.0211820095130604 )
( 13.064254916926007 1.5535194904717609 0.0098432512565539 )
( 12.679062818359188 1.664782977889094 0.0008853314850272 )
( 12.277548587001853 1.7964950991610893 -0.0041519433583801 )
( 11.871677307315776 1.9378518467250785 -0.0056356906387785 )
( 11.501690594370489 2.0571146434724628 -0.0051170519457381 )
( 11.142808736546275 2.151081174822977 -0.0031662258124171 )
( 10.769435090413744 2.233052265916381 -0.0002391070559964 )
( 10.370172537768523 2.3318524385507837 0.0037458604273469 )
( 9.948035324497754 2.4750328459559534 0.0083927324359148 )
( 9.543956484619562 2.700950527614415 0.0113623490530434 )
( 9.158827552286503 3.053925073749941 0.016027456223027 )
( 15.369397921469355 1.0151649447375586 0.0857766965921125 )
( 15.122571524035529 1.05232841084067 0.0839137551876214 )
( 14.818600781816508 1.1124472028222805 0.0783362671460362 )
( 14.55756981352372 1.1492403427974478 0.0693889422445933 )
( 14.27682441315216 1.1877047882197809 0.0566134474069004 )
( 13.96470850168702 1.2353304648749095 0.0404119633821125 )
( 13.654567439268172 1.278737254649608 0.0258038807294839 )
( 13.310928064668948 1.3414576539275755 0.013328566150265 )
( 12.924226688352093 1.4390414889469634 0.0022336957731856 )
( 12.517898744191696 1.552575245491079 -0.0048544036748206 )
( 12.090329689605044 1.6799618760937625 -0.0081918014885914 )
( 11.679432697210204 1.8061831538794708 -0.0092164549140532 )
( 11.2892620570876 1.9142293741591088 -0.0078305035019309 )
( 10.89876032701148 2.007848755731285 -0.0041615485442126 )
( 10.504431479825312 2.091341381013972 -8.426520112887152e-06 )
( 10.082455725865133 2.198628966528501 0.0035093498277918 )
( 9.639395774034044 2.358241060076744 0.00648591665596 )
( 9.22130441610894 2.6194946025048904 0.0087215963744564 )
( 8.738419400255552 2.998081802187237 0.0107544525605194 )
( 15.310598577971293 0.956687714781084 0.0812730001895096 )
( 15.053932190525916 0.98132132469996 0.0776075859289263 )
( 14.7426833077101 1.030927122211435 0.0711263185830311 )
( 14.47768867151951 1.0636729848147577 0.0619366903418325 )
( 14.19108431601519 1.0978850836385703 0.0488058724254165 )
( 13.869386946279272 1.143715300038059 0.0327236244540995 )
( 13.54759665364547 1.182958521760195 0.0187033614931053 )
( 13.198448445467667 1.234900298273809 0.0066247639013141 )
( 12.801939109911045 1.3214222531294677 -0.0034793368340712 )
( 12.37403258711465 1.4250058798228815 -0.00944666707701 )
( 11.92578714845932 1.553753446959459 -0.012000337699589 )
( 11.500636878779108 1.680864999020248 -0.0121360476777442 )
( 11.085600861991864 1.7771576610997857 -0.00995536640127 )
( 10.672881257451216 1.8601365491293569 -0.0060823402215032 )
( 10.247276441815933 1.955378881081956 -0.0001512894134318 )
( 9.80408936165147 2.0695354622629134 0.004574680301904 )
( 9.352388243961135 2.246883218409128 0.00509155492164 )
( 8.864615804605974 2.538739973952547 0.0067964412752247 )
( 8.21701399207457 2.879970632917958 0.0062003833671904 )
( 15.255082054089446 0.893271956998237 0.0761252026253695 )
( 14.995918700013382 0.9133023342999216 0.0716839017617255 )
( 14.682862594776122 0.9530569057280182 0.0648950860005712 )
( 14.408024114212695 0.9728709764688986 0.0545390548544298 )
( 14.114457771382655 1.0052330215785283 0.0413735503667157 )
( 13.787735948758504 1.0522111883177057 0.0261594659212468 )
( 13.4525282711159 1.0823777785507562 0.0123490484020202 )
( 13.097822769761525 1.1259538298735303 0.0006024673090522 )
( 12.683306942640328 1.2064306152903468 -0.0079961495518008 )
( 12.238495083723429 1.3036672930902586 -0.0127375490684396 )
( 11.774619598734194 1.4240532426081334 -0.0152993963717096 )
( 11.320227057627408 1.5459621335242035 -0.0142610713572349 )
( 10.891787944565104 1.6451852385346095 -0.0107648173987466 )
( 10.471658400728918 1.7237032660061782 -0.0078810061579751 )
( 10.01697104958615 1.8186228993086504 -0.0030640147243959 )
( 9.542143843109832 1.938128663263612 0.0003474445362853 )
( 9.072860895183046 2.1299137734562734 0.001884009657175 )
( 8.486368980083194 2.4340799749377493 0.0029565089045166 )
( 7.601158678449602 2.6919865087528443 0.0004881660834697 )
( 15.205356325323608 0.8278935146106101 0.0707984177282862 )
( 14.944994849315927 0.8454579007818857 0.0662047155248356 )
( 14.628497731788 0.8791107471724471 0.0590192168086986 )
( 14.349182839825517 0.8923458501532431 0.0482411681098834 )
( 14.044947796547662 0.917151296831286 0.034856390868636 )
( 13.705526172946596 0.9485808631910972 0.0202241948394387 )
( 13.36174362626671 0.9742939205762142 0.0064539773679412 )
( 13.002064425943676 1.0131488381418472 -0.0050263416277421 )
( 12.56220912903028 1.0868734080833091 -0.0124280122763375 )
( 12.099752668676574 1.185676751844568 -0.0161099459071959 )
( 11.63345472954881 1.2971382698158689 -0.0177762670291659 )
( 11.166655267484872 1.4162251406245598 -0.015333799051082 )
( 10.721717211995516 1.5196893144433932 -0.0112785519951852 )
( 10.273662642417255 1.5893261193205 -0.0081381801623719 )
( 9.805125349162598 1.674387813001675 -0.0046534632687714 )
( 9.309352229930056 1.7985886036856806 -0.0035141909720273 )
( 8.77232279473428 2.008794755269061 -0.002844403192561 )
( 8.115272710652128 2.3164052547500966 -0.0046774967618401 )
( 6.850412388524004 2.409445131922684 -0.0056706887259688 )
( 15.161004824220932 0.7677083694768905 0.0669205903900617 )
( 14.89462978360421 0.7769614376547698 0.0615672749978194 )
( 14.575416439931624 0.8039937199209829 0.0536243358243814 )
( 14.295655383266554 0.8158485997523748 0.0427613743071994 )
( 13.981874256134462 0.8307990551115113 0.0289832530848933 )
( 13.636931743680696 0.8482909674676231 0.0149798685348361 )
( 13.284684088810929 0.8753107606386381 0.0015041436618625 )
( 12.907361623013305 0.9159784487021094 -0.009766854166613 )
( 12.449110077605583 0.9759428335908789 -0.0164170164683471 )
( 11.965088176403947 1.0684543157768605 -0.0192077618113393 )
( 11.49344577329552 1.1706534891851124 -0.0190005916628892 )
( 11.029195357930266 1.2736796505082089 -0.0165049991221451 )
( 10.568101263556796 1.369023361640974 -0.0131307139355755 )
( 10.089608118863875 1.4401753884250634 -0.0083613215385165 )
( 9.596461227385044 1.5198108273071602 -0.0029430876191645 )
( 9.079031109979557 1.6467942546632 -0.002266026357291 )
( 8.459737154909618 1.8675694700481391 -0.0049235845105058 )
( 7.617793743174792 2.121584292399424 -0.007062297670862 )
( 6.128589169981588 2.0898850570817227 -0.0068504444556237 )
( 15.12306849989346 0.7057970558511518 0.0632213919685809 )
( 14.851262984314404 0.7104547206505146 0.0573215329243133 )
( 14.524850359560336 0.7297760883605072 0.0483691343644157 )
( 14.242489722312836 0.7340782682522461 0.0365881354742841 )
( 13.924050412473962 0.745962983523945 0.023859323399398 )
( 13.580004460726856 0.7648873497424048 0.0103125121096146 )
( 13.224626115339117 0.7890798545335641 -0.0034832058710581 )
( 12.825665875869818 0.8208903980120468 -0.0139466626569257 )
( 12.356500345202107 0.8742927077320946 -0.0196281495972392 )
( 11.865117242906011 0.959200514551377 -0.0214395476240076 )
( 11.376430649879882 1.05193418372296 -0.0203954902575385 )
( 10.889305598869589 1.1347820827425523 -0.0176879339682152 )
( 10.409037960506936 1.2117893830416535 -0.01461673144423 )
( 9.913406313707387 1.280354009564432 -0.010708232342233 )
( 9.400782848935924 1.362929605270906 -0.0056584060525761 )
( 8.841930668170425 1.5074525493886568 -0.0053188464528047 )
( 8.161534067959588 1.719866931334359 -0.0065155752377964 )
( 7.088420920873686 1.8659258620409875 -0.0065882050011782 )
( 5.5121612141867145 1.7833377223219653 -0.0084592663830001 )
( 15.091273544620174 0.6420392097151422 0.0595839462311182 )
( 14.819264597159078 0.6446218297670385 0.0535396009259968 )
( 14.483548046069432 0.6585793150403233 0.04348380988929 )
( 14.193649798150568 0.6541462955260308 0.0312712699283969 )
( 13.869327757884072 0.6587039871245634 0.0190409947181599 )
( 13.521682510538474 0.675574300275067 0.0051441355415333 )
( 13.162063640282046 0.6863397849251797 -0.00837943301754 )
( 12.752312095325614 0.7123614906169345 -0.0172936156868091 )
( 12.282781461390249 0.7738922434890694 -0.021454176200801 )
( 11.785310024973915 0.8511293285085213 -0.0229864735252472 )
( 11.273682485363231 0.9370085922588144 -0.0225457903964639 )
( 10.763467302709294 1.0021048927421383 -0.0189260353427065 )
( 10.26454796694616 1.062211918113412 -0.0159497772214456 )
( 9.740837595321269 1.1216291320588443 -0.0131321923513596 )
( 9.211111944623458 1.202697422423496 -0.0111214483167498 )
( 8.59264025616861 1.355039581551961 -0.0117313303882243 )
( 7.838504859992597 1.5440281928440114 -0.0110740177334088 )
( 6.649088726774332 1.612640798580813 -0.0089965199577779 )
( 4.948424243051051 1.4766098351434027 -0.008963502926185 )
( 15.06428119886874 0.5861386276809184 0.0564811978229123 )
( 14.790242603006387 0.5813999724683527 0.0499155544136478 )
( 14.448522596727054 0.5863312035387483 0.0390888841817694 )
( 14.152228666907682 0.5775820501950061 0.0270923281673755 )
( 13.82269562990363 0.572656329382232 0.0147485627911263 )
( 13.473368036004397 0.5793426731228947 0.0007383974909551 )
( 13.101589328760353 0.5809913415437632 -0.0123612838544529 )
( 12.683273200074169 0.6110269525550606 -0.0198070513221843 )