/*--------------------------------*- C++ -*----------------------------------*\
| =========                 |                                                 |
| \\      /  F ield         | OpenFOAM: The Open Source CFD Toolbox           |
|  \\    /   O peration     | Version:  2112                                  |
|   \\  /    A nd           | Website:  www.openfoam.com                      |
|    \\/     M anipulation  |                                                 |
\*---------------------------------------------------------------------------*/
FoamFile
{
    version     2.0;
    format      ascii;
    arch        "LSB;label=32;scalar=64";
    class       volScalarField;
    location    "0.0059";
    object      k_LES;
}
// * * * * * * * * * * * * * * * * * * * * * * * * * * * * * * * * * * * * * // 
 
dimensions      [0 2 -2 0 0 0 0];
 
internalField   nonuniform List<scalar> 
13597
(
0.1417329595595858
0.1407797456240767
0.1400526277612439
0.143558950209833
0.1496195686900481
0.1549923953819579
0.1602648369369535
0.1653185345060866
0.1700916872075291
0.1736601767845692
0.1764244222153661
0.178464620718227
0.178620261736052
0.1776306531016803
0.1761490601971068
0.1744701357391621
0.1725707520257011
0.1699299314341752
0.1671766495971257
0.1427281737052682
0.1408550860438124
0.1386528530118878
0.1422338843233709
0.1467856582450905
0.1511291708888742
0.1556944152610098
0.1599907972414889
0.1638885515653523
0.1663583777527792
0.1678576290625582
0.1684434451381543
0.1677715767457701
0.1668799061782875
0.1668207161237219
0.1674626062361997
0.1683687669665108
0.1695965659706225
0.1712043812929044
0.1413408349059491
0.1387409898475018
0.1361532618476391
0.1389721143826258
0.1420093256318986
0.1457014321291017
0.1490500095630919
0.1518809281329697
0.1542020784234854
0.1558368239445801
0.1569180497038501
0.1580914745952712
0.1596437979415178
0.1615865128918182
0.1643605866314477
0.1675644760371605
0.1707347934894568
0.173955855123862
0.177208355280456
0.1394702410046487
0.1371389097901166
0.1350613301877265
0.137570403665804
0.1407143726892582
0.1442292370159849
0.1471685157321942
0.1500429102872162
0.1522018614925665
0.1541176027733992
0.1559307296386437
0.1583770219060855
0.1617633883628679
0.1661959776372004
0.1707947644751207
0.1751541904378563
0.1791660496399253
0.1833872051446714
0.1877778755064406
0.1402734793499627
0.1380287987946773
0.1371183467447028
0.1410478285300251
0.1450574447787249
0.1486961072961916
0.1518720609654698
0.154707348936233
0.1565469671159264
0.1583971250548071
0.1612475588903473
0.1654316292126965
0.1709089923519317
0.1772986726218393
0.1834225158943453
0.1891184814946779
0.1943976948790037
0.1998727315162706
0.2056890654784367
0.1433894554281048
0.1417590227160284
0.142114433300173
0.1475251601382599
0.1518682568678949
0.1554020101013978
0.1582881669175307
0.1605760104387197
0.1626481108761897
0.1655245058388659
0.1696569849730786
0.1754915929148702
0.1828162350607128
0.1896902339336432
0.1965509195014786
0.2028544969890922
0.2084130971764287
0.2134058791624116
0.2185836497155034
0.1477078148071106
0.1474123738828092
0.1496399015817287
0.1549817648057798
0.1589254970193897
0.1621032579313089
0.1642364676213469
0.1662876396877045
0.1690787644428893
0.1728811879215206
0.17796137823752
0.1849121876880786
0.1926414746174432
0.1994685020966843
0.2060508381552875
0.2116068579957283
0.2161828156744386
0.220006433020129
0.2234504464007034
0.1536087482522093
0.1540787978743885
0.1571853588507032
0.1623725458137741
0.1658759472216073
0.1679142231010071
0.169825806935058
0.1725744863673414
0.1755217755598936
0.17957652678519
0.1853072028218224
0.1927188751138978
0.1996679342493438
0.205697940914199
0.2111799967785753
0.2153376096944267
0.218673535580531
0.2212909442327172
0.2234007929674392
0.1597242461553408
0.160205014110643
0.1636149958664794
0.1686124740176529
0.1717184011667049
0.1737150223501972
0.175516415598877
0.1778934744560139
0.1808362681021358
0.185284884735134
0.1909469641964729
0.1977320875634003
0.2040396921793858
0.2091732335066539
0.2136151789718288
0.2168536029077261
0.219091327268438
0.2212317220403774
0.2230623996838732
0.1654909152380795
0.1659940795165667
0.1694149942925629
0.1740461294096347
0.1765722808178348
0.1783917055197265
0.1799633042960629
0.1824243858371543
0.185440855442685
0.1897053368302598
0.1951292330288238
0.2008659872098635
0.2066933567299528
0.2113671178098927
0.2148763594945272
0.2176316922727046
0.2199049613545499
0.2223897093151202
0.2248330751167655
0.1704676251252915
0.1704487113425938
0.1745037686287119
0.1790820696512123
0.1811413175660634
0.1826075642507703
0.1842328259537622
0.1867638757750687
0.189616539052712
0.193123377962871
0.1975823336648838
0.2029954161385476
0.2082007005393198
0.2125384465674998
0.2160193614986987
0.2190624167422758
0.2224210383403376
0.2258803101577763
0.2295096747793915
0.1738168752103023
0.1736637000553793
0.1785720079812812
0.1831752983610466
0.1850551088453566
0.1865618383463387
0.188070776460032
0.1897292903861684
0.191982679564578
0.1948796589054946
0.1988679960967761
0.2042509072121531
0.209173218531638
0.2138234977771302
0.2183236182938383
0.2225188831878428
0.2269651405640877
0.2319023316411741
0.2375777335558447
0.1766230548808213
0.1775880099118745
0.1829275632728277
0.1864176507047475
0.1883340112074478
0.1896509162201523
0.1907746162264183
0.1919854839863329
0.1938530613606285
0.1964591573100493
0.2004961061961296
0.2057288366578521
0.2110506889611383
0.2166145541612686
0.2221428840700703
0.2275641539008744
0.2336967048583363
0.2409583004871152
0.2493219507062993
0.1799358804734228
0.1812089280179039
0.186842757347188
0.1895293632535035
0.1915841702722039
0.192705692385737
0.1929690983489936
0.1936506042402193
0.1952041929322971
0.1978684582392459
0.2018892912711648
0.2074005858805252
0.21381569013006
0.2204280575969123
0.2270234758337873
0.2343377427160621
0.2431393140796187
0.2532295259875681
0.2646753095751177
0.1825845778481521
0.183726851275714
0.1900186622343262
0.1931977050712733
0.1951951150358792
0.1952311042466403
0.1946118832663151
0.1949589681848703
0.1962158537821926
0.1987563948827554
0.2031692973168593
0.2096701565240092
0.2174230465792803
0.2252162338274586
0.2335198174961966
0.2433697999763147
0.2550166152419261
0.2684133560975598
0.2848522133299911
0.1841707491837542
0.1863874345334322
0.1932022784626333
0.1966210202562488
0.1980340736489443
0.1971581507907713
0.1960626270106476
0.195820742171355
0.1970033858075475
0.1994654730628773
0.2047477446166307
0.2129794000616313
0.2218936486530152
0.2310488943892724
0.2417283336397203
0.2541788282190209
0.2690087390774386
0.2875679225222012
0.3126467670787397
0.185452426986923
0.1893342931829488
0.1963845101453548
0.1993311865353277
0.1997973239783238
0.1984081729095592
0.1970406406832435
0.1961651715910898
0.1970393135162546
0.2002004774762324
0.2064623944524716
0.2161947217018345
0.2266271794396277
0.2375308363580029
0.2509679608166722
0.2665991635746466
0.2858855027692997
0.3124816150662726
0.3473327080140602
0.1873438179267126
0.1922244346113472
0.1995657797223104
0.2018185969422369
0.2011875649294787
0.1991417190094967
0.1976489454001693
0.1963576332153665
0.1972303011087682
0.2012434166506362
0.2085124153652137
0.2195483705588406
0.2319705899854162
0.2454475754371533
0.2614684053770031
0.2805212407999327
0.3068450282519042
0.3431519986496609
0.3799795613213222
0.1897830135687006
0.1949563220916705
0.2026355572899155
0.2040768088586657
0.2022960819863948
0.1996593656918062
0.1977819277297676
0.1964157872576031
0.1975906820757635
0.2024680752193986
0.2114425498176815
0.2236733530699681
0.2380895559820697
0.2544714438727258
0.2732475396227813
0.2974448986038213
0.332825233864314
0.3781759733641954
0.40648194031029
0.1920324466350219
0.1975915945198184
0.2051795367261546
0.2057582619542482
0.2031259989462828
0.1999117355595208
0.1976647380935824
0.1965370826426617
0.1980907012177465
0.2038737796146427
0.214558434419418
0.2284443627848314
0.2448477140773828
0.2635042573887707
0.2867717893300137
0.3179955721049216
0.3633186338122046
0.4143348839131532
0.425428268047845
0.1947186372121004
0.2000716229117814
0.2067188102238059
0.2066990014086319
0.2037525380580433
0.1999543734264489
0.1973507217232583
0.1964939842277701
0.1986480497442989
0.2054378377024477
0.2173997472010459
0.2335995779685072
0.2520049722536679
0.2727691147142389
0.3012208247493315
0.3416590592153334
0.3968180589963966
0.4468602194803167
0.4238799325322279
0.197211563449435
0.2022664405534893
0.2082083001744952
0.2075235598315248
0.2041998448858307
0.1999337512055333
0.1970365707390997
0.19624393944815
0.1990264622150386
0.2070779555321818
0.2205099478029971
0.238455141371436
0.2588770902363282
0.2834139466753799
0.316920358763529
0.3674277597950862
0.4301160826344342
0.4725880556958829
0.3923809642842285
0.1990209728748481
0.2041892200562713
0.2096094877093065
0.2081979252256033
0.2040903143714015
0.1996974335140458
0.1970900970051062
0.1963508612134254
0.1996632618852216
0.2091454455230053
0.2243164236206095
0.2434743963680657
0.2657025536309697
0.2943116548943338
0.3356682207594304
0.3957983641088735
0.4620509954521387
0.4775186352885957
0.3556165927560656
0.2009525187464147
0.2057731100109232
0.2105103901407683
0.2085989581092878
0.2035558058543573
0.1990466077243419
0.1966416071808082
0.1962631451248565
0.2004743302033865
0.2111871819781653
0.2279180058326604
0.2490781803654099
0.2737542886591655
0.3061254724580541
0.3555140233943645
0.4246129397757169
0.4908569772674879
0.4665278414619728
0.3219595941260076
0.2029385936355371
0.206837029655081
0.2107655144484056
0.2083235296279802
0.2027857901471073
0.1982941151044988
0.1958659224341515
0.1960693511818
0.2013221064882096
0.2129581981677561
0.231345502368869
0.2546913397288529
0.2820138126679745
0.3208260872922857
0.3768373490921484
0.4512862811708021
0.5108873428582904
0.453510898254666
0.2861224758388912
0.2045985932502787
0.2076849221807079
0.2108414421067798
0.2076949374797721
0.2021304062674674
0.1978843865948217
0.1953786535561071
0.1960798350892939
0.2022082596489959
0.2149695877898965
0.2346769968512445
0.2597017460318339
0.2901307638179181
0.3349497172943947
0.3982436094022585
0.4769223547121464
0.514010278943946
0.4279231977335007
0.2581837825356319
0.2058698688786702
0.2082621407289373
0.2106007506896864
0.2069387414913179
0.2014427507657446
0.1973085561259835
0.1948947373914334
0.1961728195159179
0.2031372564144032
0.2172207949477989
0.2380247888922192
0.2643959022816611
0.2980775870393797
0.3471709947271451
0.4181582297206418
0.4990957651902914
0.512946358330783
0.4002192951036891
0.2350186891748681
0.2067593179710672
0.2081667949961934
0.20971013434898
0.2063891352559029
0.2009811485734927
0.1966387958699534
0.1945872830038162
0.1962463753179485
0.2037830287554
0.2194189667542184
0.2417499839603513
0.268959036676265
0.3055349133993046
0.3598051718012523
0.4389325352824843
0.5193745406831347
0.5188546889085242
0.3820576629654264
0.2160126869881367
0.2070998575192359
0.2079277591776377
0.2089025109524179
0.205763406743079
0.2002831090109261
0.195729338659834
0.1940867684040756
0.1962151433879509
0.2045273290185678
0.2211681585248325
0.244455011860025
0.273668592803504
0.314980509910127
0.3734019150576902
0.4577698848526057
0.5343430433864812
0.5169650062191744
0.365163038951055
0.2030954426895691
0.2069235339267678
0.2073277596955197
0.208079092738645
0.2047023694769865
0.1990809975228186
0.1945099442902576
0.193441404712142
0.1962866588880281
0.2056202937489016
0.2225382950124617
0.246288579304507
0.2786097436706314
0.3234289941132335
0.3860210654386826
0.4741348828120275
0.5309152124705924
0.4941197989068542
0.3478144481458701
0.1949171443838598
0.2063840197976697
0.2063102838556267
0.2070641430064642
0.2034840049352524
0.1977965956037426
0.1933561153321375
0.1927944776379276
0.1964441150001813
0.2067059918602387
0.2241941143600475
0.2486802042693169
0.28299016708901
0.3293471914975832
0.397051764007726
0.4883750169562209
0.5244475226537006
0.4704786095758263
0.3326493534308827
0.1891454472515051
0.2057048649111667
0.205584152448554
0.2061808286249849
0.2020879314636126
0.1966736654105847
0.1924851559583581
0.1921757959247414
0.1966842670943742
0.2077436833226387
0.2259503563384053
0.2511917352211364
0.2865025134615504
0.3350570739836002
0.4104587165788547
0.5017258647174737
0.5278447352996122
0.4627789486742126
0.3201879792242263
0.1826115918436414
0.2048457256161288
0.2049559363256589
0.2050056002993676
0.2006964989030427
0.1957754064140525
0.1917037741199399
0.1915136233674061
0.196774419471345
0.2085668676454746
0.2275601833619008
0.2537347104921
0.2903905943707321
0.3406578149243347
0.4219542013733712
0.5141335192363099
0.53426474080115
0.4608944087249796
0.3105821462326227
0.1751110592155339
0.2037184911565133
0.2036039074820639
0.2032548492457471
0.1992271003349225
0.194838736652
0.19095294450224
0.1907594220945079
0.1965282283165332
0.2091462903045645
0.229000142003554
0.2565148617541442
0.2944130078009254
0.3456512068721764
0.4305136643533356
0.5252670148828382
0.5399909522136991
0.4595289151296125
0.304606234264027
0.1703184620054467
0.2025457471365535
0.2020845597399186
0.2017474063641411
0.1978781396351008
0.1939685631475931
0.1903911833205557
0.1902482439221017
0.1962602146320169
0.2094430049405832
0.2299444231395433
0.2586127759215478
0.297504630884084
0.350566089748939
0.4385665125176666
0.5336038443340786
0.5428210092963351
0.4562644756675095
0.2995739961562273
0.1671349621469617
0.2014898834863511
0.2007308723128917
0.2004832199057186
0.1968116106773434
0.1929407264069304
0.1894936169131282
0.1897040290223174
0.1961146534497647
0.2097256950773955
0.2305599923256734
0.2599828676499403
0.2999803127501062
0.3553633890636913
0.4438545529367652
0.5388883269227153
0.545733634019533
0.4524472999488937
0.2935870830219632
0.1632877792512884
0.2004458897386146
0.1992498494330302
0.1991930283201293
0.1957051270749509
0.1917103658399073
0.1885338242018782
0.1893475208007321
0.196192516166279
0.2101095875815368
0.2313048503463282
0.2612280011133938
0.3024100718747203
0.3593589273726763
0.4485723165364751
0.5424399496674439
0.5452106638900496
0.4504404566246387
0.2912841598265862
0.1603037275664869
0.1991543804136909
0.1977517792703298
0.1978196510322117
0.1944425138779781
0.1906729934169691
0.1876727635512273
0.1891095640241327
0.196351424614133
0.2106111054291063
0.231964273336132
0.26241193238801
0.3048057264275081
0.3640679336015456
0.4539700201436819
0.5428433396045063
0.5425261935642811
0.4469735999345007
0.2898545600911557
0.158656081327322
0.1976258859109148
0.1959997929044664
0.1962277933231833
0.1932697531842601
0.1898817894267262
0.1870109321342522
0.188682442882785
0.1960929497091708
0.2110352989523888
0.2325369542524354
0.2633496953761634
0.3068104074391331
0.3696079526814642
0.4607686049160354
0.5417902045940268
0.5384134979873283
0.4415828208502834
0.2863609286733371
0.1576484883308357
0.1959538129747606
0.1942164189334385
0.1945484434754288
0.1920320140389785
0.1889884534697677
0.1864486721444339
0.1881508917902515
0.1955812521159972
0.2109474979144998
0.2326919385247662
0.2637515653395657
0.3077703789463442
0.3725653105341169
0.4657733130811441
0.541496886984792
0.533218976066647
0.4379468210568573
0.2843882239384629
0.1571886620837196
0.1944921542266874
0.1928320226307785
0.193116564723584
0.1907794524863929
0.1879727120760158
0.185656989838052
0.1876128947758091
0.1951944428217309
0.2108228704399344
0.2331334772006283
0.2641292609040491
0.3087967361288311
0.3746453359136206
0.4675960405876807
0.5394716457523491
0.5272361495508634
0.4336716372620455
0.2821624930378836
0.1568772894285137
0.1932661518108948
0.1917151622485925
0.1921940414559649
0.189779638789434
0.1869526021279076
0.1850094006647672
0.1872607878788407
0.1950070493047012
0.211073138411152
0.2341785376391602
0.2649343836258067
0.3099045384350116
0.3764553605832832
0.4677640810629476
0.537561245612564
0.5237905647969505
0.4292277817717857
0.2783030092064858
0.1557077167205051
0.1918545418836146
0.1902917496174171
0.1909145532596108
0.1884534675745723
0.1857387530903188
0.1844412031658161
0.1869028662635223
0.1947555062314362
0.2108729146586734
0.234451419774127
0.2654336055025302
0.3099541297646129
0.376365821831065
0.4688195205410592
0.5388586578811253
0.5227072124317793
0.4254176048138974
0.2747262674666306
0.1536055149720517
0.1906288658926898
0.1889797533897022
0.1894467260370512
0.1870159729911013
0.1845413928014324
0.1837941922986931
0.1865294799229861
0.194585294271868
0.2108918842745402
0.2348761932685292
0.2659082407437491
0.3105897210923886
0.3769688170761303
0.4698476341763865
0.5364719827552791
0.5175167620158403
0.4211984107617509
0.2721029213009244
0.1523025794644026
0.1535582617498449
0.1543403486434999
0.1546152446206452
0.1544026694148003
0.1531925179270529
0.1500818336477024
0.146031677320206
0.1407533483669301
0.1346542161993416
0.12819218903895
0.1217643530766855
0.1160614919281228
0.1102852024914757
0.1046881291463835
0.100346531678941
0.0969444523633058
0.0946153077035249
0.0938586717298864
0.0943368690696422
0.1599802644224622
0.1609571151927594
0.1588475135585486
0.1558777059116837
0.1524411014075889
0.1471037625957051
0.1415293548153463
0.1349002873459162
0.1276737167007091
0.1210669247061702
0.1153720877335218
0.1113377654833006
0.1088687618790984
0.1074451178972317
0.1077380806424285
0.1096208285959584
0.1128356341548129
0.1172628523956428
0.1221271617188423
0.1679351684313804
0.1685822293080379
0.1638201929376571
0.157806419886797
0.1519554139593955
0.1447853246987642
0.1373387218211635
0.1296818493179221
0.1227642551918698
0.1175958538873929
0.1145449826499234
0.1138588683025686
0.1158398637607259
0.1203433495221598
0.1263556989026153
0.1331093437279068
0.1396381144003548
0.1457851304849969
0.1519617903211916
0.1778843607290309
0.1771977098306869
0.1683551264233955
0.158215051064977
0.149088336189732
0.1398243552212084
0.1313641317909174
0.124010294725361
0.1185401358502339
0.1156415158807566
0.1166921683298574
0.1211167175762133
0.1283024097781021
0.1375028668374192
0.1461038133235332
0.1539485148996393
0.1610790368297446
0.1680250525142675
0.1754410611369332
0.1865445782066117
0.1826020443302444
0.1695920610849015
0.1560059126673109
0.1439415666982841
0.1331075582338961
0.1251975791850206
0.11987546726536
0.1182438160112424
0.1204595795477874
0.1268476370300143
0.1361914444119547
0.1472876760144013
0.1591322503491213
0.1691239626232746
0.1775948207913214
0.1852190095442146
0.1920654118856501
0.198530870472514
0.1915709541114799
0.183817546639434
0.1664944758774573
0.1502798158600505
0.1374267763413153
0.1275859311217941
0.1221283816644968
0.1207090468437152
0.1240808437937796
0.1316679663155466
0.1424747855828466
0.1548691410581313
0.1678029165369411
0.1793689143054424
0.1886831101984594
0.196006393997353
0.2014997098982161
0.2060480115572585
0.2099014332941494
0.1946356277229476
0.1819650798792072
0.1599569971753506
0.1431174194854756
0.1319521802731021
0.1250853382438478
0.1232478398420539
0.1261649701111551
0.1338962464806934
0.1446966136148572
0.1574688592166007
0.1708342263146896
0.1828401699472052
0.1923928137098017
0.1994371328900292
0.2042582969641381
0.207129474422823
0.2090777290062145
0.2100802108133239
0.1936899220391656
0.1760615892916869
0.1528737976385117
0.1371588197085
0.128294732655251
0.1248994021564367
0.1268571220786752
0.133320392927521
0.1436433037371514
0.1555896549945674
0.1686275010341118
0.1813156733427725
0.1908914529591777
0.1979600508249767
0.2024981406217987
0.2048505068080993
0.2055364517204102
0.2053220113057022
0.2041512600943835
0.1899588937307644
0.1697473425935296
0.1467030118615867
0.1331134018514693
0.1270766532564431
0.1267632494111459
0.1318201026829404
0.1407420165454534
0.1516847774966327
0.1636653269219169
0.1759211100759695
0.1866120983257934
0.1940562883683334
0.1985885322463852
0.2008499456880958
0.2014671330591223
0.2009021982683273
0.1995833395806008
0.1972660276225779
0.1838513516441253
0.1625921731569503
0.1413387389517503
0.1309556359601508
0.1274475881140274
0.1297405986561721
0.1367794465014087
0.1466584719697982
0.1577397435666095
0.1694843036443748
0.1799909730981949
0.1882689765130877
0.1939146828830036
0.1967479056943971
0.1977966488879785
0.1978322062803355
0.1968199032491462
0.1949594352649139
0.19211524320962
0.1757744368752699
0.1550703842549215
0.1371202522315568
0.1299506549688846
0.1290148022974863
0.1329487528342905
0.1406016919997894
0.150727601092231
0.1618583920641118
0.1726672088655371
0.1817294926715021
0.1887232775712606
0.1928066960198625
0.1947708559616173
0.1955450094693712
0.195177419547795
0.1941420058909458
0.1923662670580614
0.1898761733170891
0.1685117346875021
0.1489085310348696
0.1339436761600265
0.1291206075852965
0.1300511642493365
0.1353674067358108
0.1434077918231693
0.153865810874003
0.1646235141485473
0.1741851429807696
0.1828534979291658
0.1889782623006817
0.1920909950844974
0.1937828390109493
0.1943901310887125
0.1941926720975458
0.1936782648468356
0.1926970631101962
0.1914730823014292
0.1620832537599596
0.1436886119001232
0.1316441165190794
0.1291513538205809
0.1313428386684044
0.1375762359802058
0.146029501886933
0.1562327328754397
0.1664978188481198
0.1752627081531122
0.1831162760261558
0.1888463520014541
0.1919813781849292
0.1938945111008423
0.1948814157143304
0.1953709442961673
0.1960059006787819
0.1965685118078644
0.1970379062817612
0.1563842982779081
0.1399629091415017
0.1304228175446728
0.1296202690767186
0.132942165910324
0.139342630723155
0.1481872648603362
0.1584847140889743
0.168312065228704
0.176401511814894
0.1835479011334002
0.1891023706170642
0.1926435154076141
0.1950138892742902
0.1970218372907566
0.1990571533203316
0.2012090209769172
0.203823662527532
0.2066146510402152
0.1518390223545836
0.1375054514850372
0.1298970464640142
0.1300345749430032
0.1341571739494631
0.1410142788980622
0.1500312648173103
0.1599997435203706
0.1692600021934765
0.1773217557819398
0.1845741149420719
0.1902558066552321
0.1943264490541357
0.1975881770742744
0.2007811425148233
0.2048507037836779
0.2093821284638465
0.2146027874657003
0.2216780181782545
0.1481690543874625
0.1353608151756315
0.1296601676107561
0.130518847538703
0.1352513857607553
0.1426232370855574
0.1517749629532108
0.1615627040278172
0.1701209731558356
0.1784527606820656
0.1858918678313859
0.1920716335069115
0.1971485234846395
0.2016554900186565
0.2064961164282928
0.2124275039675298
0.2198926424314674
0.2293999253607333
0.2427429688107536
0.1456146492461207
0.1338748766415499
0.1296890997609694
0.131103770185769
0.1364097521996446
0.1440069712999083
0.1533749883596816
0.1634144417940834
0.1719192734811226
0.1802367231640812
0.1875120603773921
0.1943924024328028
0.2007924166826172
0.2069020116700762
0.2139251599460599
0.2223911227607413
0.2333505231209504
0.2489295393094514
0.2679666399532416
0.1437645926606273
0.133207955129844
0.1304970643534991
0.1326336833408992
0.1379334775517835
0.1457785654525007
0.1552635234454875
0.1648915528003942
0.1736565324153126
0.1820916927925705
0.1895495552389991
0.1974665666818837
0.205211742308329
0.2133677345630639
0.2228193227151258
0.2345915169304575
0.2507849023060128
0.2740988967376978
0.2943435473239197
0.1422805302611015
0.1328144832770387
0.1315774979418004
0.1346888682553167
0.1399419508885513
0.1473171390547823
0.1570241967981318
0.1666069591928688
0.1754325878616777
0.1840681024405445
0.1921834925891042
0.2011877674678586
0.210495721240023
0.2206944573476387
0.2326273193973396
0.2490256911377873
0.2723835993678925
0.3020754540317642
0.3151243565453497
0.1413321948527062
0.1331327822942799
0.132671343000632
0.1360822040623819
0.1418165060683645
0.1491876530560811
0.1584713198044092
0.1680487740197794
0.1771755343259267
0.1861559811336183
0.1954115778486542
0.2057420260413434
0.2169534357613566
0.2294955631656197
0.2442831431687589
0.2658788615542576
0.2983304562314527
0.3299206327883402
0.3286432133626049
0.1407076523152045
0.1342048459068173
0.1344480917555343
0.1378821078313823
0.1439526097398429
0.1516379244437749
0.1605414452217386
0.169895773428755
0.1787769713292764
0.1882351306640757
0.1989635696385229
0.2107805711066453
0.2237310880468479
0.2392309871558606
0.258648685549965
0.2865234674828454
0.3263182751699263
0.3565207144807008
0.3299788458248709
0.1406660542961831
0.1353478690395189
0.1365150250787047
0.1403837969073523
0.1464505635921123
0.1540512090918591
0.1627320372176507
0.1719567919347686
0.1808451332443207
0.1908162197789345
0.2026391275880535
0.2160180731667024
0.2307732463100445
0.2490972957411698
0.2731892659723754
0.3099303724728083
0.3577499607648277
0.3843608412008424
0.3096409628802359
0.1412047463806476
0.1364695292403168
0.1386462495806478
0.1429548873724847
0.1484725427426574
0.1559533585253269
0.1644686697623902
0.1733857998092795
0.182870784964178
0.1935986799798938
0.2064169990137226
0.2216601349284462
0.2391196355067674
0.260402205015595
0.2908543653712511
0.33724092806744
0.3890350875463146
0.3916680137150125
0.2831751359848177
0.142364248442951
0.1383329167504207
0.1410269900815007
0.1455273337277941
0.1508129854145351
0.1577541701622331
0.1657390863908257
0.1743452223700861
0.1843191086353446
0.1963898323846194
0.2104932692731049
0.2273613972384802
0.2476331665766299
0.2727165585822128
0.3110592721044853
0.3664475488127088
0.4152800490875569
0.3831083101511399
0.2617552894635196
0.1440127729657152
0.1407761563247034
0.143724644987849
0.1480602124530143
0.1535013994764575
0.1599122177401296
0.1670596247072285
0.175496230496735
0.1860043062064165
0.1993380601159079
0.2152779148494621
0.2337448971659602
0.2561319920331146
0.2870531674896639
0.333206907139006
0.3928315868954796
0.434122012490709
0.3791937749733087
0.2399687641695374
0.1457422667315584
0.1428641342819546
0.1463734200018194
0.1508577135516812
0.1562142491946824
0.1620252372337252
0.1686566684338372
0.1771344864092284
0.1880712036147502
0.2021817967962772
0.2195452488383278
0.2399594404274099
0.2642019251569984
0.3006381533534252
0.3545032043711862
0.4160968440237103
0.436505457171598
0.3599744172056696
0.2189726441440513
0.1480142329367916
0.1454834417174332
0.1492877800984674
0.1537642003888903
0.1586679722477092
0.1638485247872497
0.1704685612797425
0.1790126173208267
0.1901543944277576
0.204801204765553
0.2236328912517839
0.246356343618525
0.2731957058362933
0.3133752324530202
0.3735199902557969
0.4379270573722666
0.4400763110036241
0.341504184469053
0.201311883410213
0.1505614649909
0.1485007763726017
0.1524838470299246
0.1564671635432695
0.1606902528822647
0.1657218193603219
0.1721562948257264
0.1806431694403324
0.1920923146199821
0.207383724602844
0.2279103909667127
0.252442764393547
0.2830052049481049
0.3285847075866824
0.3956857669447294
0.4622782396905136
0.4515395132276987
0.333757380854129
0.1905951556402341
0.1529713284154551
0.1513033327922135
0.1552316860188928
0.1587244628653011
0.1626378491175113
0.1675571235382139
0.173507211502032
0.1821196506264625
0.193953266404715
0.210064756588801
0.2313599541175327
0.2576125222716038
0.2927124778430165
0.3430001826777315
0.4145244620085627
0.4760029509235768
0.4523181634925616
0.3251554188240705
0.1838567545518732
0.1555505542532255
0.1545311544243152
0.1579505362515165
0.1607520842894643
0.1643407367508803
0.1689846069269985
0.1747724802248816
0.1837238245077162
0.1957164594462648
0.2125553884414381
0.2349251274604704
0.263712256156354
0.3031707407844301
0.3555928647654989
0.4299340777437641
0.4773801046959632
0.4367040273218493
0.3104189466552732
0.1764622630618698
0.1581986347288115
0.1577061800070109
0.1607830165612708
0.16302479501813
0.1660296864898747
0.1701375669075382
0.1758726337877736
0.185382738581769
0.1975677928271469
0.2146812275437379
0.2383198910339728
0.2690339424701582
0.3107774939686595
0.3681117459677368
0.4477164810137206
0.4795350846286351
0.4214398315484116
0.2957790602373917
0.1696739358829092
0.1611725645265627
0.1609356843088566
0.1640940736812116
0.1655855537991445
0.1678308254063278
0.1713702321535092
0.176986927565168
0.1867196130684161
0.1993867361199376
0.2171003336755001
0.2418559826307428
0.2737963713017337
0.3172111223621437
0.3817150442622239
0.4653949672229843
0.4876936398294755
0.4189753831509043
0.2874055784931102
0.1642917376955114
0.1645995253265898
0.1641801274232159
0.1675201444485964
0.16823675229702
0.1694037767516632
0.172573111449752
0.1780926750184625
0.1875807842895541
0.2006631807633588
0.2194278968340935
0.2456017546201168
0.2794662253097205
0.3254485140870337
0.3946170153434821
0.4793984235290876
0.4989238602608438
0.4211570915716777
0.2814522504456971
0.1616426874425564
0.1676978935920927
0.1668905264830065
0.1699632011196344
0.1704580395996549
0.1708362251017923
0.1737437582023907
0.1791455572754171
0.1883124178093471
0.2016864455443629
0.2211959490076593
0.248133941561558
0.2842621816218276
0.3322528301344856
0.4048994009307588
0.4893197078810577
0.5062781432161053
0.4244224909659245
0.2772432050373788
0.1585877163203752
0.1704605920626054
0.1693638041108483
0.171964780065671
0.1723981077856617
0.1726662395229213
0.1751054027793207
0.1802217437176522
0.1892285139716008
0.2031402925267615
0.2232794879756177
0.2507738896575852
0.2886778471425401
0.3371516272899051
0.4128499120932994
0.4981625955513639
0.5132563634546526
0.428514631855209
0.2747593845827334
0.1554551638057071
0.1730754067873239
0.1719762961505413
0.1744184777155395
0.1745935198773659
0.1746982347512299
0.1763997545778645
0.1811473186191473
0.1902372419488414
0.2047660889466953
0.2253343790407992
0.2538409076518735
0.2926151745336725
0.3414575351106008
0.4207634773697162
0.5087513750124215
0.5197517840977564
0.4287286129749802
0.2735741358002108
0.1545569076911309
0.1755652968445232
0.174680815208348
0.1767850255959318
0.1766184395168266
0.1761248672712107
0.1776216706001387
0.1821042965856031
0.1910531949874077
0.2059763215404564
0.2269314566848662
0.2557327299133784
0.2955363790734369
0.3468620491076533
0.4286808496090928
0.5169558870275568
0.5243306254765484
0.4292518560708163
0.2738896986580584
0.1548945936089192
0.1782742113277325