/*--------------------------------*- C++ -*----------------------------------*\
| =========                 |                                                 |
| \\      /  F ield         | OpenFOAM: The Open Source CFD Toolbox           |
|  \\    /   O peration     | Version:  2112                                  |
|   \\  /    A nd           | Website:  www.openfoam.com                      |
|    \\/     M anipulation  |                                                 |
\*---------------------------------------------------------------------------*/
FoamFile
{
    version     2.0;
    format      ascii;
    arch        "LSB;label=32;scalar=64";
    class       volSymmTensorField;
    location    "0.0059";
    object      tauij_LES;
}
// * * * * * * * * * * * * * * * * * * * * * * * * * * * * * * * * * * * * * // 
 
dimensions      [0 2 -2 0 0 0 0];
 
internalField   nonuniform List<symmTensor> 
13597
(
( 0.1698794250197806 0.0211001133161344 -0.0228532322095032 0.0606174163431039 -0.0030415163681375 0.052969077756287 )
( 0.1715840997846652 0.0195419023706216 -0.0205423346980962 0.0561790316155574 0.0010420891599529 0.0537963598479306 )
( 0.1740212777681228 0.0148406346229899 -0.0148566350967167 0.0489319575035405 0.0097317475111435 0.0571520202508244 )
( 0.1773506627927908 0.0083592774395695 -0.0070851488254372 0.0436072021543502 0.0201588390833543 0.0661600354725248 )
( 0.1799550401493839 0.0027450006983377 -0.0005645134717323 0.0423984529323536 0.0275338013015239 0.0768856442983587 )
( 0.180502290185611 -0.00143569068521 0.0053222999432571 0.0433837556832327 0.0323589358937003 0.0860987448950718 )
( 0.1796541125670293 -0.0055045698073565 0.0105228821689029 0.0456902099940649 0.0362568286864128 0.0951853513128128 )
( 0.1774115241791872 -0.0096394892960187 0.0151741746635596 0.0495990937382718 0.0390678504096454 0.1036264510947141 )
( 0.1745373366437091 -0.0134779050098872 0.018709296017872 0.0548442884596781 0.0409742415596441 0.1108017493116709 )
( 0.1702917562534099 -0.0164271551261239 0.0206400556654033 0.0608313437432967 0.0421309417710238 0.1161972535724317 )
( 0.1647618395470616 -0.0184567622191312 0.0216404463230798 0.0680137416486632 0.0428827799973194 0.1200732632350072 )
( 0.1598733764183117 -0.0200478711272636 0.0210082835447589 0.0747488492314965 0.0429207435255713 0.1223070157866458 )
( 0.1546983155724509 -0.0208503975120725 0.0194055382301403 0.0801485609416063 0.0420375962326026 0.1223936469580468 )
( 0.1490902276240836 -0.0208921397893667 0.017029437050862 0.0852349363725185 0.0410907383061167 0.1209361422067584 )
( 0.1436851842343019 -0.0200763789448504 0.0138427129830107 0.0895497079217629 0.0402136779238419 0.1190632282381489 )
( 0.1385358512968288 -0.0189446301307406 0.010850459377553 0.0926884265325164 0.0385998843642464 0.1177159936489788 )
( 0.1339824599016789 -0.0179443616677235 0.008082566423755 0.0944607205902304 0.0358077809500426 0.1166983235594926 )
( 0.129632002812063 -0.0160717457596224 0.0045255772302184 0.0941698479387942 0.0325923434884661 0.1160580121174931 )
( 0.1259784446837152 -0.0140816414046937 0.0001504554947559 0.0923609088170905 0.029125322191881 0.1160139456934455 )
( 0.1660875110915138 0.0288779049766264 -0.018953861553362 0.0536782667468981 -0.0052375671649733 0.0656905695721244 )
( 0.165536469183184 0.0278640479059588 -0.0142561760590778 0.0484995479149651 -0.0007250794464143 0.0676741549894756 )
( 0.1643839643297061 0.0238138231160227 -0.0034938584170199 0.0420996023049916 0.0091721355756422 0.0708221393890779 )
( 0.1641234524879491 0.0187810172540715 0.008578960383361 0.0412639005716964 0.0193268849069132 0.0790804155870963 )
( 0.1621312005166501 0.0147409421777373 0.0169015747603848 0.0435963897929023 0.0247978325445156 0.0878437261806285 )
( 0.1580455845879349 0.010919980816859 0.0241750953698942 0.0479982213704877 0.0285784847176382 0.0962145358193257 )
( 0.1538276447802205 0.0070526623569846 0.0295146931540649 0.053861453269657 0.0313826532066303 0.1036997324721419 )
( 0.1482951484728132 0.0033656446091327 0.033315537931609 0.0611596958223668 0.033302218482822 0.1105267501877976 )
( 0.14234898904802 -0.0002664178409785 0.0356359329756479 0.0692592651801009 0.0348192408856853 0.1161688489025836 )
( 0.1354899179732694 -0.003302555046526 0.0356901172414419 0.0773199714920108 0.0360874428197228 0.1199068660402781 )
( 0.1277828802381802 -0.0060298679991484 0.033370444756571 0.0853427386176703 0.0376093750652116 0.1225896392692658 )
( 0.1212194142760584 -0.0093484429613853 0.0286453021878746 0.0920406297463454 0.0387486494629311 0.1236268462539049 )
( 0.1151360441402667 -0.0114622523789695 0.0227129156703666 0.096469398391782 0.0390583073821445 0.1239377109594915 )
( 0.1099510344909113 -0.0128856021247487 0.0155738617268228 0.0990773566555569 0.038767386993791 0.1247314212101066 )
( 0.1066144505860021 -0.0142259891415045 0.0078488593380795 0.1005696744779595 0.0378721339979914 0.1264573071834822 )
( 0.1040350742853841 -0.0146440937412075 0.0003030932784484 0.1010372069338561 0.0361321117851982 0.1298529312531592 )
( 0.1025799611716102 -0.014802898077373 -0.0069398669502262 0.1003307977971816 0.0328673771768511 0.1338267749642298 )
( 0.1023227716243444 -0.0139651391371103 -0.0148153274721095 0.0983773245060879 0.0284692792301596 0.1384930358108125 )
( 0.1028369828596264 -0.0123089559248027 -0.0225901863860597 0.0957554351963609 0.0234895853173874 0.1438163445298216 )
( 0.1525592258977294 0.0341302022041776 -0.0121577217532841 0.0486799615162432 -0.0051020554346511 0.0814424823979255 )
( 0.14815552084593 0.0331755933276832 -0.0041675098015947 0.0445280017876663 -0.0004187954136671 0.0847984570614074 )
( 0.1427851777383619 0.0289730045409684 0.0098670990953593 0.0412592130241416 0.009031583917416 0.0882621329327747 )
( 0.1370617450575885 0.0233302851717235 0.0220223628416692 0.0448002286237524 0.0175661502020522 0.0960822550839105 )
( 0.1298473664818647 0.0183842584997998 0.0283688197700674 0.0499828423769683 0.0216952155400863 0.1041884424049642 )
( 0.1231030381859419 0.0132236837235082 0.0322586283402441 0.0565981021663232 0.0244926498784962 0.1117017239059382 )
( 0.1164945660859315 0.0076852051780034 0.032925419156886 0.0644293888079697 0.0268462020429758 0.1171760642322825 )
( 0.1094508061843622 0.0024315174461845 0.0308858624116744 0.072950733448035 0.0290647172131916 0.121360316633542 )
( 0.1034743352491223 -0.0025296619533961 0.0264344909995205 0.0809955843998673 0.0313637635004987 0.123934237197981 )
( 0.0985884132087727 -0.0072558880592033 0.019692973109805 0.0880637915581827 0.0331774414032482 0.1250214431222047 )
( 0.0944642061778007 -0.0113250281243317 0.0111328141808777 0.0936683459724579 0.0345051724804681 0.1257035472574413 )
( 0.092172041033275 -0.0150633109833981 0.0006032824296558 0.0974419322781723 0.0353773318398721 0.1265689758790951 )
( 0.0913935627869327 -0.0176827868552563 -0.0113570103523635 0.099340107559049 0.0352015202256962 0.1285539255370539 )
( 0.0917784214639238 -0.0190227560297788 -0.0230758413852109 0.0996185412386563 0.0331505263163633 0.131776063081056 )
( 0.093616229948593 -0.0194738833612359 -0.0332653938408677 0.0991069471758959 0.0293294074556885 0.1359979961384064 )
( 0.0958320239910718 -0.0189981694236001 -0.0426184053730711 0.0981978581371307 0.024974395978178 0.1410990699461185 )
( 0.0983564936712206 -0.0179510603302705 -0.0510729511174413 0.0969932020698976 0.0197571870079219 0.1461198912377952 )
( 0.1015864174456049 -0.0161213816217605 -0.0590741738360383 0.095346122511239 0.0134383713866846 0.1509791702908799 )
( 0.1049768999901413 -0.013527054410094 -0.0664373163287647 0.0935348613931663 0.0062650459109798 0.1559049491776043 )
( 0.1345287866607143 0.036018198809929 -0.0007874863319142 0.04743664573635 -0.0045579789786378 0.0969750496122328 )
( 0.1275957757308256 0.03396911879099 0.0095433467760516 0.0454363663275356 -0.0002851228129777 0.101245677521872 )
( 0.1196952637612241 0.0278975574272143 0.022441077626243 0.0450666349488626 0.0071289034222049 0.1053607616653661 )
( 0.1113078794247714 0.0199169426010858 0.0305424452769181 0.0510129142218154 0.0137758703898691 0.112820013685021 )
( 0.103540672106618 0.0127472037073057 0.0318783728816023 0.0580414632866952 0.0173515288476465 0.1198466099852029 )
( 0.0977582050803999 0.0057684279295197 0.0295894486939324 0.0655335637356862 0.0199443980887836 0.1251667052158834 )
( 0.0931277652228695 -0.0011140128716893 0.0238612492117843 0.0731741286092527 0.0222902299625588 0.128035137632266 )
( 0.0900365818714597 -0.0074575318318669 0.0157438402584304 0.0804665750193466 0.0245982729414597 0.1295826636836258 )
( 0.0883775346787744 -0.0128288147099493 0.0060183799788157 0.0864433814659346 0.0269135447431741 0.1295828068404239 )
( 0.0884745261284053 -0.0174956722242572 -0.00514162821264 0.0907966886830626 0.0287442607446182 0.1289639907353304 )
( 0.0897462912534736 -0.0213235197585956 -0.0174865077253743 0.0934026847656729 0.0292229856454243 0.1287124832581407 )
( 0.0924237447451164 -0.0236690469132896 -0.0298844917870415 0.0944256576617207 0.028128432470591 0.1299046414053338 )
( 0.0963100599911587 -0.0244121027130583 -0.0420235616703318 0.0941347012909397 0.0248654314911248 0.1330820154436373 )
( 0.1009584163780532 -0.0237959767171897 -0.0527903182253154 0.0934331383510312 0.019549279925111 0.1380004005453165 )
( 0.1058309946034264 -0.0219869896331661 -0.0611495349189546 0.0923894370960722 0.0131089834767086 0.1433690972507428 )
( 0.1103624578716641 -0.0196410456188368 -0.0678302432784703 0.0914708914543517 0.006503657979881 0.1484750315496967 )
( 0.114904444455103 -0.0170002848539989 -0.0731313388989288 0.0905496272077397 2.484516910585137e-05 0.1528780276170076 )
( 0.1199243189662045 -0.0136457794859928 -0.0777270938708385 0.0893977322196887 -0.0069438081224133 0.1574523591034496 )
( 0.1249692832263537 -0.0092637352744733 -0.081383277520808 0.0883461231452304 -0.0147064949577544 0.1622403446412968 )
( 0.1190721767748385 0.0347158293791255 0.0127125957488112 0.0500984467431483 -0.0046048516676128 0.1113763351819383 )
( 0.1110841662338449 0.0296431723512973 0.022851728544303 0.0494597214821383 -0.0010795786388524 0.1155137098733713 )
( 0.1027757922436761 0.0209603229842964 0.0310626604883564 0.0512311365343879 0.0049438854162255 0.1202297647113415 )
( 0.095844332741091 0.0110093634767174 0.032609242182887 0.0582702256298766 0.0106770938518423 0.1279810986890825 )
( 0.0908195280897671 0.0023144369384652 0.0281265233152574 0.0656275838252072 0.0140545464915446 0.1336677776424754 )
( 0.0879777856473063 -0.0050465220725539 0.0203672720513137 0.0724752095639679 0.0172701398082181 0.1369392193811088 )
( 0.087594066936355 -0.0119650755534771 0.0101937392359975 0.0784841235783931 0.0199831188256641 0.1376659314161913 )
( 0.088372987431314 -0.0178105020198238 -0.0012697310740443 0.0835810386373577 0.0229094844402102 0.1374606718037941 )
( 0.0899038335335976 -0.0219514539631864 -0.0129860176467578 0.0867674384285446 0.0252000170216998 0.1364226622697106 )
( 0.0933475714466241 -0.0246573422168221 -0.0247979180626881 0.0881246021276915 0.0257147415939676 0.1353220765352984 )
( 0.0982090211164887 -0.0261792521369313 -0.0367584432594752 0.0884274630728232 0.0238318540657841 0.1358586335913826 )
( 0.104003705527746 -0.0260066647141847 -0.0477453314622352 0.0879496499240306 0.0192456944584558 0.1389099029736163 )
( 0.1104844515977338 -0.0238071016597984 -0.0574005351434417 0.086866551177448 0.0125044832435318 0.1444669819286815 )
( 0.1173985751398968 -0.0202299991245332 -0.0649420534275767 0.0861397742152615 0.0044614004565218 0.1510589958885201 )
( 0.1239393858149675 -0.0158997207798336 -0.0698985756192678 0.0854518703012882 -0.0033703962265115 0.1574537756724349 )
( 0.1299893206186673 -0.0110621164389423 -0.0729767992549566 0.0848496283247229 -0.0110493266075313 0.1633980140459654 )
( 0.1356099157125364 -0.0059162587727725 -0.0745727068744956 0.0843390041440656 -0.0182608342090418 0.1688464699014053 )
( 0.1413147067922986 -0.000425368793143 -0.0754360998556237 0.0839267664681649 -0.0248656724648472 0.1745039897720777 )
( 0.1473407482415066 0.0059704001479016 -0.074882170065393 0.083892740232445 -0.0315466493513635 0.1801446424829217 )
( 0.1078799062682872 0.0302352705504822 0.0242119352275336 0.0548396932215015 -0.0046901281297846 0.1240593113664209 )
( 0.0999183446842208 0.0225430857677333 0.0317824076618117 0.0549502776678516 -0.0016204832847634 0.1286494230799843 )
( 0.0922722021591657 0.011569696954666 0.033608306278764 0.0580963814945094 0.0041676438995267 0.1338602829466707 )
( 0.0881253404744468 0.0008637091029961 0.0284742595206906 0.0654160293915141 0.0100089486071352 0.1415089504105586 )
( 0.0862778650973197 -0.0075713100923541 0.0196173744204296 0.0716914830786637 0.0141266544465321 0.1457671655598063 )
( 0.0863474746352235 -0.0141895736260441 0.008595335185087 0.0771476924773985 0.0184470156833223 0.1473088530901735 )
( 0.0881121158599169 -0.019461613333668 -0.0032091484929833 0.0812299832757015 0.0221397441974693 0.147234234699443 )
( 0.0907300500832336 -0.0230927024775053 -0.0153679831598714 0.0836892183247633 0.0253829332225855 0.1467327524694423 )
( 0.0945590749429821 -0.0250641105989529 -0.0272856403905351 0.0842178413331474 0.0267239935297764 0.1465193054762499 )
( 0.100079034207267 -0.0252565390769505 -0.0382376241063705 0.0836561231060793 0.0246709579554676 0.1473138543643855 )
( 0.1069090844946717 -0.0235488069305715 -0.047621252370271 0.0827154002954174 0.0190197720252839 0.1496894851560682 )
( 0.1145393563488694 -0.0198877068948732 -0.0558063911641244 0.0813978235454346 0.0105729994529094 0.1550460059354364 )
( 0.1224544432222277 -0.0145540055370728 -0.0622984275626908 0.0804668613145624 0.0012801115587147 0.1627111655846356 )
( 0.129734272239681 -0.008224835228564 -0.0659996347440977 0.0801076614919323 -0.0080861934891291 0.1695385341356728 )
( 0.1364164742241854 -0.0015662117780446 -0.0675848439590632 0.0801761304648667 -0.016479501932178 0.1765092343139052 )
( 0.1425113281038668 0.0051602644536812 -0.0678196384427795 0.0803338294448166 -0.0235856577725009 0.1828638364295009 )
( 0.1478784673781613 0.0120656526093172 -0.0667840445224074 0.0806904863170868 -0.0299116367940697 0.1882572406576092 )
( 0.152711535075517 0.0190074733168105 -0.0646796556341333 0.0813784909122897 -0.0351621366775634 0.1927217323370165 )
( 0.1579838126343626 0.0265391542373495 -0.0615081050267697 0.0824602389414767 -0.039813198958366 0.1967232478551675 )
( 0.0988963274033153 0.0234028112811154 0.0318985196715069 0.0601407963305519 -0.0041103337169366 0.1363785058803541 )
( 0.0920994840386499 0.0142962921483037 0.0348384712465999 0.0605903047931872 -0.0007980004601607 0.1421349589337811 )
( 0.0867600760344707 0.0025783099101185 0.0308450414483161 0.0643890786687583 0.0054943396744725 0.1481306484602285 )
( 0.0844089779060517 -0.0074708777265684 0.0210250213492317 0.0712295368501919 0.0122767811031986 0.1543250148553157 )
( 0.0843619098739628 -0.014274643331465 0.0094366575096949 0.0762957306747981 0.0178132335262523 0.1571933534900183 )
( 0.0857507800791746 -0.0194685896216722 -0.0032019081954444 0.0802549968774358 0.0234175375060043 0.1582007389060073 )
( 0.0879409662300603 -0.0225247649119601 -0.0157312171922223 0.0820868011245197 0.0276258176963896 0.1584451678881137 )
( 0.0919624856828532 -0.0235166408673771 -0.0267920775961062 0.082120633217598 0.0294360075583554 0.1584921604749577 )
( 0.0975264770928501 -0.0226299167036004 -0.0369168782788071 0.0808641492200402 0.0283037808467168 0.1597669025728881 )
( 0.1041914347350848 -0.0199054286733006 -0.0457773366632922 0.0790953478797881 0.0231987432296744 0.1624755932281682 )
( 0.1118741292969434 -0.0152554461281453 -0.0524715050262345 0.0775796122057812 0.0144309065388538 0.1664690149723151 )
( 0.1200368239235581 -0.0084914925429052 -0.0576410046996532 0.0764470546611993 0.0033606282415574 0.1733404967913997 )
( 0.1279548995360167 -0.0006643262289738 -0.060803014395147 0.0762327709909263 -0.0075321824787764 0.1810952787079433 )
( 0.1346345497865847 0.0075835058045414 -0.0615628081799617 0.0767854548554127 -0.0171094218992302 0.1875169995513713 )
( 0.1405787029952308 0.0158481072047304 -0.0609321826591394 0.0779492361772849 -0.0251309098941702 0.1935737371380591 )
( 0.1457456485377351 0.0235941407924649 -0.0593794557503516 0.0791057943148494 -0.0311832524282715 0.1983622731388721 )
( 0.1503375178715608 0.0313567343366604 -0.0568703924424715 0.0805960145685317 -0.0360222833783539 0.2014320989087848 )
( 0.1546690482224311 0.0393156694428407 -0.0534182706595683 0.0824249570760594 -0.0398496416234244 0.2029188607417674 )
( 0.1592263429606937 0.0475038003682329 -0.0490555260858549 0.084610031421155 -0.0424984237379884 0.2030645184195581 )
( 0.0924935915970212 0.0161864256578711 0.0348245649945722 0.0657894493955452 -0.0025180011818684 0.1489344555118522 )
( 0.0864408063763104 0.0066775858888447 0.0326935888082621 0.0661913352319125 0.001989600684689 0.155525454140554 )
( 0.0826947109782149 -0.0044740219217877 0.0241835386840771 0.0702031057895834 0.0096009686028939 0.161472900933608 )
( 0.0818466150083315 -0.0132585789481344 0.0117653485790293 0.0764640630222557 0.017843146239785 0.166434413596961 )
( 0.0823885457662434 -0.0182622588856383 -0.0011916872527235 0.0803491511684653 0.0248395676580344 0.1690141975085057 )
( 0.0839498554615864 -0.020526749392751 -0.014008256980739 0.081927361371744 0.0305756570572515 0.1699512293686836 )
( 0.0872390658839679 -0.0212629113709714 -0.0256792481718116 0.08157140270099 0.0337180875978351 0.1708411452851579 )
( 0.0922743055464948 -0.0202214399356098 -0.0348662326367038 0.0802733485700451 0.0334787078692457 0.1726013186181428 )
( 0.0982532115474215 -0.0164919031696892 -0.0421702678500485 0.0779332143473428 0.0288713391202138 0.1748571252250228 )
( 0.1052820377260027 -0.0109891380659272 -0.0485899233125677 0.0755206192582341 0.0203614087922696 0.1783503965861429 )
( 0.1131463233834634 -0.0037517688493074 -0.0530262260953252 0.0740558667849263 0.0092593166654252 0.1834122154752549 )
( 0.1213463629873062 0.0050736718950955 -0.0557152208800527 0.0738587953508252 -0.0031787109013442 0.1902325918896642 )
( 0.1285238232820488 0.0145919562011649 -0.0564745269802162 0.074826747189001 -0.014660118859372 0.1959852980276377 )
( 0.1345137620463588 0.0240253965425379 -0.0553123673368075 0.0766710309871215 -0.0237425866816985 0.2002110887949176 )
( 0.1397283689710564 0.0328215669708404 -0.0534562793460695 0.0789801220342125 -0.0305842464857685 0.2036515025518815 )
( 0.1440673686000892 0.0412792277679153 -0.0507504509081314 0.0813403098917535 -0.0355480780831253 0.2052675408970107 )
( 0.1483772235318213 0.049693652409444 -0.0473307631557404 0.0840986203814619 -0.0390704258651169 0.2048712272477788 )
( 0.1528616744043099 0.0582746074979407 -0.0432480800269227 0.0870779607265463 -0.0414232118207849 0.2026422533345782 )
( 0.1576283670852396 0.0669410132373214 -0.0381766251414212 0.0903636430078711 -0.0423282921182428 0.1988095758417674 )
( 0.0867792508769139 0.0097689173030762 0.0330358969347532 0.0714639899629272 0.0007763423570775 0.1612052514708404 )
( 0.0808474067357152 0.0007468273096709 0.0268060416283789 0.0716173702271582 0.0070431675864531 0.1679452512584124 )
( 0.0780178645921344 -0.0093873698354354 0.0151868595465256 0.0755612517009875 0.0163247407459826 0.1736508754398368 )
( 0.0779682441470953 -0.0161491934687597 0.0016995177892507 0.0809125466156784 0.0259154282955644 0.1783441572725319 )
( 0.0792207144415233 -0.0189513503906296 -0.0109180735271839 0.0832693347398186 0.0334414847194472 0.1809467531520679 )
( 0.0815656991095432 -0.019018821690751 -0.0220958026135092 0.0831785510802165 0.0379398329449998 0.1826857945106347 )
( 0.0856777497668971 -0.017507081867305 -0.031348265374693 0.0811013072798805 0.0387925163743038 0.1842537741509763 )
( 0.0911115391360741 -0.0141593542588561 -0.0385695301613656 0.0785628512467639 0.035664756206474 0.1861125585291898 )
( 0.0971687901924752 -0.0083916836374388 -0.0437470830898498 0.0757539419954686 0.027990371152934 0.1887498040163278 )
( 0.1044993355928904 -0.0006219730143071 -0.047715089237205 0.0734351593722153 0.0167814865276736 0.1926352745051623 )
( 0.1121831122491726 0.0086026504918581 -0.0503549113798469 0.07267552406622 0.0035354946519753 0.1970352920775532 )
( 0.1197486394071551 0.0184803604439482 -0.0512706915093829 0.0738017769123874 -0.0094200634538604 0.2019137588072579 )
( 0.12653499466059 0.0289986667681806 -0.0505094332024696 0.0764427583327973 -0.0206203290090224 0.2051016313653842 )
( 0.1322821312995032 0.0392500424322311 -0.0485645853356008 0.0797281740399289 -0.028837287592157 0.2063361616738757 )
( 0.1375594020536286 0.0484685131509361 -0.0458036183505288 0.0831414844548008 -0.0344055588875099 0.206529471435228 )
( 0.1419661261511415 0.05749091711341 -0.0423109648137742 0.0868681410640318 -0.0382378553199284 0.2048729386002786 )
( 0.146325149748526 0.0664724945270159 -0.0384389372169768 0.0909288661571704 -0.0405213062939252 0.2009286386311795 )
( 0.1516181703629064 0.0756020424472831 -0.0339417098974606 0.0952288435046795 -0.0415431965953838 0.1956164302131688 )
( 0.1575745011368215 0.0848952277201921 -0.0287703425288947 0.0995877316121209 -0.0410655489308364 0.1889625666188039 )
( 0.0810434664055946 0.004789369485698 0.0278755680182363 0.0762798332736561 0.0063643968752234 0.1736585307969081 )
( 0.0753476768562121 -0.0039782628140653 0.018730021048102 0.0766225547003949 0.0141454929451711 0.1800179274765263 )
( 0.073075449070817 -0.01226762921738 0.0057173297689812 0.0804256540412148 0.0248792399495256 0.1853288854730937 )
( 0.0735153335604598 -0.0162967448426164 -0.0071068645612863 0.0844115505434738 0.0345398435821103 0.1901653747153356 )
( 0.0754828566933541 -0.0169597452568166 -0.0182832596364478 0.0849701645089359 0.0408321058095205 0.1926915404333795 )
( 0.0784164887498969 -0.0155676639762425 -0.0270001332731776 0.0835183273098081 0.0437616002722934 0.1948485949797478 )
( 0.0828502739804683 -0.0121071768181382 -0.0335497555990501 0.0805466467026257 0.0422216859805999 0.1965296879090315 )
( 0.0888971796145941 -0.0067639688609742 -0.0388662318076939 0.0773354833141808 0.0363489161926097 0.1986161087455337 )
( 0.0950171318584511 0.0002410250590293 -0.0426987054392315 0.0745038337912973 0.0264916646231571 0.2013607452356214 )
( 0.1021983423699703 0.0092958019745069 -0.0449475527982806 0.0728371926448229 0.0129734981564004 0.2043751386457263 )
( 0.1101836934245957 0.0197415661599041 -0.0462194389071512 0.0733630187261651 -0.0017662880665854 0.2067117539068865 )
( 0.1174578732712581 0.0305961746064664 -0.045956984713758 0.0760727202623638 -0.014914899377267 0.2082013808861052 )
( 0.124124749641245 0.041803393279117 -0.0443086541800583 0.0804013204488642 -0.0253218067454301 0.2088606433697962 )
( 0.1300455133593921 0.0525023808900301 -0.0418851015986158 0.085132213465534 -0.032525843279446 0.2075565087948592 )
( 0.1353178077566428 0.0623195143748768 -0.0383850202819145 0.0900209929633552 -0.0370798612060442 0.2044139182690563 )
( 0.1402511262184073 0.0719391096589015 -0.034408813451378 0.0952642233209732 -0.0399224114627839 0.1997480350060287 )
( 0.1456542606056345 0.0817936973460704 -0.030405063100034 0.1008131750981662 -0.0412218589021006 0.1933424870052991 )
( 0.152454298723697 0.091817159958298 -0.0260435280963866 0.1064201517957836 -0.0410816530415512 0.1859049681107598 )
( 0.1605192750851193 0.1020082229819598 -0.021202692515524 0.1117155198805009 -0.0394951578172329 0.1774313552679107 )
( 0.075345446609917 0.0005619224465421 0.0215322914893006 0.0803796565737989 0.0124758907981338 0.1852101470668672 )
( 0.0699518477893482 -0.0067148434455805 0.0106469060488732 0.080765375364525 0.0217540795144627 0.1901801995313144 )
( 0.068064450374282 -0.0129076205471833 -0.0026258287397565 0.08459167036162 0.0337992327372858 0.1963514165215218 )
( 0.0693235333863785 -0.0149966323534586 -0.0135818193632213 0.0874693563684332 0.0424199399222325 0.2013712495476129 )
( 0.0716279896006666 -0.0142133728754067 -0.022592394210061 0.0865094675925917 0.0472262894283188 0.2041451779388684 )
( 0.0750218743761443 -0.0110801850813396 -0.0291297117339836 0.0837422225255673 0.0482815037297501 0.2064510315998288 )
( 0.0800836749681404 -0.0061873406451772 -0.0336055494033459 0.0803684589090588 0.0445515790349801 0.2080135180303251 )
( 0.0863755630852848 9.257214954113136e-05 -0.03712755951921 0.0770507962337323 0.0366789665637208 0.2101013922311202 )
( 0.093158606605785 0.0080827468528605 -0.0395345045198429 0.0745464464707965 0.0241894942643106 0.2115280250288426 )
( 0.0997866068356246 0.0178978790585915 -0.0408908665786711 0.0738307535695165 0.0087313306792136 0.2126293955206009 )
( 0.1070132420273354 0.0290541054446257 -0.0411648030573096 0.0757319571812426 -0.0065409458977636 0.2124194681211895 )
( 0.1146642322031503 0.0410946045581598 -0.0400997254744706 0.0802505709942079 -0.0198284005625046 0.2110760290797366 )
( 0.1214616494015962 0.0528426506986781 -0.0379360460813176 0.0861365891239956 -0.0293654155277013 0.2088031625530474 )
( 0.1279305965199771 0.0640460259284045 -0.0350499149605771 0.0924692503501948 -0.0354800342592874 0.2046770462648275 )
( 0.1338796944763965 0.0748086308498525 -0.0315224421593477 0.0991644723958784 -0.0390867653434904 0.1989945561251221 )
( 0.1399571225821951 0.0854696468511952 -0.0274961104695549 0.1061492307390934 -0.0410439333302777 0.192018480163263 )
( 0.1472491495736307 0.0964130926417487 -0.023498108811267 0.1133915741614173 -0.0414959819622062 0.1842013529456271 )
( 0.1560597464629457 0.1075302903975095 -0.0197524483231227 0.1201968906487894 -0.0404589127400594 0.1755039832038174 )
( 0.1667039844820352 0.1192655462211549 -0.015947310826174 0.1264996371604942 -0.0381333935819962 0.1658157279162536 )
( 0.0686689336257116 -0.0024460996152988 0.0145451829955425 0.0841565338574864 0.0188462922961214 0.1948082829374064 )
( 0.0637435963524935 -0.0075616655346147 0.0031182634372956 0.0846675838943479 0.0294332374088378 0.1989162198639171 )
( 0.0629904744066286 -0.0119150359361587 -0.0090189907302688 0.0881365295191358 0.0417867410389763 0.2060170120367979 )
( 0.0648035910404482 -0.012606713694508 -0.0178184003850557 0.0897416861823577 0.0492897562787392 0.2118053194992871 )
( 0.0677107441269671 -0.010638688143003 -0.0244688549615589 0.087839983524004 0.0527965728750183 0.214559490039742 )
( 0.0722323042724032 -0.0065411367037731 -0.0289142552558767 0.0842228862648648 0.0515209087125522 0.2166684861554093 )
( 0.0778020951450523 -0.0008589165996114 -0.0320422360375005 0.0803985105105267 0.0454894998690867 0.2179409472644851 )
( 0.0837830946220496 0.00630679094925 -0.0343780283145073 0.0771624591454547 0.0351591925403717 0.2185130270048324 )
( 0.0905288581914569 0.0151596132322632 -0.0356174242311678 0.0753763607925272 0.0202268286768632 0.2180601401451719 )
( 0.0969005478599936 0.0255099173477157 -0.0360367520741125 0.0759417114902786 0.0038405755044529 0.2169170584607169 )
( 0.1038578312689963 0.0372084728533513 -0.0356472643122429 0.0794458316312669 -0.011427094798455 0.2144323292932889 )
( 0.1116436839084468 0.049929502087202 -0.034072463560915 0.0858870635300873 -0.0240970370667529 0.2109710669857721 )
( 0.1189678572277029 0.0625102365051671 -0.0315833037085264 0.0936412808653101 -0.0326741521298693 0.2057372989702628 )
( 0.1266349592130854 0.074958409442542 -0.0287308374739391 0.102002269308829 -0.0379438406833872 0.1990097670323461 )
( 0.1342458872071121 0.0872344483467644 -0.0254770693975323 0.1109029128284285 -0.0408372193458842 0.1914984365521359 )
( 0.141960097021486 0.0990809850716633 -0.0220096780779554 0.1197333365148597 -0.0419211728303211 0.1833443328393401 )
( 0.150878805614179 0.1110657032327121 -0.0186675465049691 0.1284522004591735 -0.0416204590272975 0.1745992750548227 )
( 0.1621259652227954 0.1238502504654891 -0.015569656687823 0.1366000301431336 -0.0399183040114607 0.1650786679164191 )
( 0.1762423923006242 0.1377316713715346 -0.0126459384630475 0.1440235415030334 -0.0369065366269139 0.1548895333080316 )
( 0.061529942954413 -0.0038331511048767 0.00763157138555 0.0881778115427405 0.0261069791384235 0.2035383552644891 )
( 0.0575394298139731 -0.0076449137114699 -0.0027046979502153 0.08881927632167 0.0369990735605116 0.2088173136881057 )
( 0.0584186816129121 -0.0102248267138294 -0.0127246777246306 0.0915203047354822 0.0487166260246828 0.215916140197261 )
( 0.0605676651918903 -0.0092579690608929 -0.0196606337276791 0.091288659200568 0.054724168518364 0.2209789770170365 )
( 0.0645548729702034 -0.0065188883277467 -0.0244868622922531 0.0886718226487667 0.0565334061331649 0.2234413267959253 )
( 0.0701127648353984 -0.0020034801039446 -0.0274806530252771 0.084595111909726 0.0532488757065029 0.2245939556951799 )
( 0.0758423078625927 0.0041771789902068 -0.0295003406375175 0.0805761978492784 0.0448174942353284 0.2251307267409655 )
( 0.0816293444886357 0.012058863899093 -0.0305964949428637 0.0778460187174841 0.0319308722016032 0.2244956047665459 )
( 0.0878508358833798 0.0214746902366807 -0.031062045589294 0.0770646287697983 0.0156089616700032 0.222790658068079 )
( 0.0942917025422394 0.0322823654072649 -0.0310463082520591 0.0790851784948038 -0.0011342812248992 0.2195414335830553 )
( 0.1018718941542108 0.044824160696513 -0.0304022398951945 0.0847450800749441 -0.0163117281722643 0.2143752381631044 )
( 0.1097860117528903 0.058110771485277 -0.0286298506580867 0.0932049307144383 -0.0279549628781243 0.2084667308483754 )
( 0.1179139339469481 0.0719320360553828 -0.0261212760755922 0.103193239237122 -0.0356767668739699 0.2009942047382064 )
( 0.1267176409204689 0.0859249783305533 -0.0234513762495069 0.1140193522491993 -0.0401580657441051 0.192492115152869 )
( 0.1354247077695728 0.0991696340484911 -0.0205477288422279 0.124928419756714 -0.0421644408121787 0.1839326406138535 )
( 0.1448043009144926 0.112213592069956 -0.0180043766669604 0.1354293761494344 -0.042537810714616 0.1748946307378217 )