/*--------------------------------*- C++ -*----------------------------------*\
| =========                 |                                                 |
| \\      /  F ield         | OpenFOAM: The Open Source CFD Toolbox           |
|  \\    /   O peration     | Version:  2112                                  |
|   \\  /    A nd           | Website:  www.openfoam.com                      |
|    \\/     M anipulation  |                                                 |
\*---------------------------------------------------------------------------*/
FoamFile
{
    version     2.0;
    format      ascii;
    arch        "LSB;label=32;scalar=64";
    class       volVectorField;
    location    "0.0059";
    object      U_LES;
}
// * * * * * * * * * * * * * * * * * * * * * * * * * * * * * * * * * * * * * // 
 
dimensions      [0 1 -1 0 0 0 0];
 
internalField   nonuniform List<vector> 
13597
(
( 17.575339211820978 1.8181910366498653 0.0799058441296786 )
( 17.582056917033274 1.861025582109738 0.0788003972287495 )
( 17.604840473914933 1.9469984692926647 0.0774209504985394 )
( 17.63888823677766 2.056459210128313 0.0765285766989435 )
( 17.66808681739216 2.148565052543328 0.0775979582064757 )
( 17.68826035710368 2.22500196050953 0.0812895500640085 )
( 17.71014181280296 2.2997774712830137 0.0855593680100099 )
( 17.73493048823651 2.379026031002278 0.0900669913129241 )
( 17.76197380166086 2.4594946475754864 0.0942301132561068 )
( 17.789118044458185 2.5402331703278445 0.097009670422176 )
( 17.817815974638354 2.6307625124898157 0.0992447703996353 )
( 17.852009564860587 2.722693165860395 0.1000961526684195 )
( 17.888616289406112 2.813859139675419 0.0989975817800904 )
( 17.925519013129417 2.911439154102045 0.0962119902985838 )
( 17.96266851172605 3.014442501844462 0.0911853586269593 )
( 18.00192334933833 3.11695493616916 0.0850631148287922 )
( 18.04485590558671 3.214705476522866 0.0783251767037224 )
( 18.0900091441284 3.315419189746079 0.0696629717316869 )
( 18.136318001912183 3.4209335463575683 0.059878062410115 )
( 17.463750443705713 1.8581804110972 0.0844558702625836 )
( 17.45212018782777 1.912510413299814 0.0845367047085559 )
( 17.448806173871592 2.0248663061270054 0.0874927367448258 )
( 17.447253841083203 2.1527260411997005 0.0925730632245498 )
( 17.44165141258034 2.2507826936551094 0.0981054777319149 )
( 17.432907627023276 2.341472025173982 0.1047731254714638 )
( 17.428177377961177 2.433226257704813 0.1106063572293979 )
( 17.42368398556822 2.5296259350536068 0.115092443061912 )
( 17.423491984363853 2.6289083822530377 0.1185600155791266 )
( 17.423580442397824 2.728935042736955 0.1194408499412494 )
( 17.423802653840276 2.8416687474913096 0.1172191693837742 )
( 17.425842405252965 2.963631400144409 0.1116725593436247 )
( 17.427852580163503 3.0883073428528123 0.1035364156098565 )
( 17.434213902678795 3.2184513524543776 0.0930698323120629 )
( 17.443625538496153 3.347507881390592 0.0812522326506629 )
( 17.454581740265244 3.4703459288074803 0.068416498312285 )
( 17.466654733943475 3.583680017822329 0.0555012715295103 )
( 17.479965590989067 3.700670288791047 0.0420107199645542 )
( 17.498331814795133 3.8172419913381295 0.0287130746502835 )
( 17.335472139043823 1.883369736155132 0.0844443633499703 )
( 17.297880801677078 1.945665796228692 0.0875025979479867 )
( 17.26256788272532 2.074723443633482 0.0958650651466483 )
( 17.223833486600235 2.2136019307541406 0.1048817798805051 )
( 17.184771203361805 2.3171326358903808 0.1114934366494836 )
( 17.151998598164273 2.420915392827994 0.1181325509599609 )
( 17.12320404874458 2.529010486432506 0.1217648121726318 )
( 17.08888297601023 2.6393067513813366 0.1219608397751477 )
( 17.060601784894804 2.7570820108224106 0.1198371239047393 )
( 17.036519419821314 2.885969221804036 0.1136742468600079 )
( 17.011118933932565 3.0237590220577197 0.103919987036006 )
( 16.988191137068203 3.1732910258585405 0.0903445999587442 )
( 16.968265805282304 3.329046387346802 0.0736054473408165 )
( 16.951649047227836 3.479815846570068 0.055963527419868 )
( 16.938692084128697 3.617958872816253 0.0394180346525342 )
( 16.928582515886305 3.741624517806686 0.024030681318579 )
( 16.916492225409662 3.853061125350363 0.0100036521048713 )
( 16.90449205669877 3.9644053866576368 -0.0034999572726548 )
( 16.90064698726002 4.079154007997744 -0.0165967504308976 )
( 17.19069634125295 1.8947634036950425 0.0863711057274524 )
( 17.12626068652041 1.96416643499874 0.0929974283649119 )
( 17.0625665085136 2.1009926856731744 0.1049085086738934 )
( 16.992989969627384 2.24646945495801 0.1154871127738771 )
( 16.92390516498467 2.358919886316948 0.1215598258062764 )
( 16.864607736385985 2.4721217892503584 0.1252791448976869 )
( 16.80657869714492 2.595398954039936 0.1243605229465127 )
( 16.746224561074357 2.722934870585154 0.1186707919662137 )
( 16.695813161688037 2.858629548459441 0.1094638273055374 )
( 16.651010331510015 3.0071128415315567 0.0959668497028329 )
( 16.60305267015136 3.166523423473044 0.0775474261090677 )
( 16.56282901193256 3.333049318549716 0.0570486067055698 )
( 16.52805206926115 3.4988908646739683 0.0348036555231443 )
( 16.491890711611244 3.6577661549396137 0.0137795233080076 )
( 16.4563683115277 3.794554499559027 -0.0036948666543029 )
( 16.422799374463906 3.911489428711145 -0.0189765112180292 )
( 16.390070441508588 4.017144823124808 -0.0317317104635996 )
( 16.354928443529793 4.123154517709016 -0.0441424139754721 )
( 16.323247570231775 4.240245900221116 -0.056905574711305 )
( 17.040836578846612 1.8945628473839624 0.0919639500367101 )
( 16.957352030856807 1.9718017042108809 0.1014226096533761 )
( 16.866421103207113 2.11717239529304 0.1154444348315726 )
( 16.768170983236317 2.2655999034004424 0.1259133281289495 )
( 16.676015746599944 2.384470320735673 0.1294056925062033 )
( 16.592686129323337 2.506434722048857 0.127737801052012 )
( 16.50996743134116 2.642449256503713 0.1208569103028754 )
( 16.42991321667905 2.7839514434378887 0.1085773865649467 )
( 16.358466756485253 2.929060206557596 0.0916294848100667 )
( 16.290117618144695 3.087317936963333 0.0706799210242642 )
( 16.22034737436014 3.261418095775652 0.0457770128285104 )
( 16.15622593424165 3.4384174172401623 0.0205919227987234 )
( 16.095349939530596 3.608816664650368 -0.0034920899098518 )
( 16.032768897015725 3.767787472900013 -0.0247715288265871 )
( 15.969789238684202 3.897894778205336 -0.0417266204145828 )
( 15.907810312975649 4.013832821957229 -0.0564525335583914 )
( 15.848902729498397 4.123832124655039 -0.0687545456646553 )
( 15.790631937514604 4.232909535469236 -0.0803264585100814 )
( 15.73264411391661 4.355173320065494 -0.0921699961168473 )
( 16.895350054797028 1.8837278867875336 0.0999196058878194 )
( 16.792093432030537 1.9682086588537355 0.1124756021555953 )
( 16.67314221833072 2.1246457654865925 0.1264987080987191 )
( 16.55289406629125 2.2761480075561247 0.1338039019456382 )
( 16.444660680173396 2.400400124666246 0.1329430593248625 )
( 16.344731207703457 2.5311441945957136 0.1249503487613586 )
( 16.245528026957913 2.671650999309993 0.1110653302529729 )
( 16.145635613929134 2.8184799441480157 0.0919045268343339 )
( 16.0460541905996 2.970934010253999 0.0681155388184796 )
( 15.948620891302175 3.141623905889685 0.0411748849258784 )
( 15.85576762438211 3.32148710727086 0.0136397688266236 )
( 15.762021130537828 3.5000738993629774 -0.0138331523458496 )
( 15.67268201709598 3.673376338933215 -0.0379158795532358 )
( 15.585960291687408 3.829178450090218 -0.0570599408385438 )
( 15.49712595737152 3.958318639825044 -0.0730520279447898 )
( 15.41506962075021 4.071826617650065 -0.0860646742602377 )
( 15.334662577232711 4.181105422686144 -0.0969363570241066 )
( 15.253871907742305 4.291262650434024 -0.1066583002055914 )
( 15.174330829742027 4.416160714325223 -0.116055891012269 )
( 16.74738474265386 1.8651494301995533 0.1112263282347693 )
( 16.626747270428215 1.958689028667673 0.1256982590571615 )
( 16.489004547255874 2.123339248708657 0.1373221428038444 )
( 16.352192267533283 2.275883560305149 0.1382815085257781 )
( 16.22929201335857 2.40329126083524 0.1305376488445643 )
( 16.109266740523374 2.536954273057672 0.1156289910217666 )
( 15.989746635155049 2.681031766406192 0.0941310096976226 )
( 15.86973082349195 2.8327122749472164 0.0692674537606766 )
( 15.745115357090242 2.9889523552549577 0.0417697493787967 )
( 15.626949566667443 3.1630608723807567 0.013422568924414 )
( 15.509250640845494 3.3462071014003425 -0.014282277157779 )
( 15.386677914165569 3.528343683984176 -0.0416910830858887 )
( 15.272466422327954 3.698777465348252 -0.0637102790874383 )
( 15.162463177067092 3.849683051843715 -0.0803200614510246 )
( 15.051579377259849 3.981654684002295 -0.0941680806099628 )
( 14.947964074229096 4.092298731078553 -0.1044899477681348 )
( 14.848219173931374 4.198996068648143 -0.1127378222050611 )
( 14.74675005654549 4.31400307822776 -0.1199791073777364 )
( 14.646970686469324 4.442596297721312 -0.1261856841235608 )
( 16.607036552489333 1.8426247530939668 0.1242894165271696 )
( 16.471989776105826 1.9409924076595584 0.1373439661011898 )
( 16.318434801663148 2.1089275835669365 0.1438465738343101 )
( 16.16698396757527 2.262114811786417 0.138222371339255 )
( 16.02625678149745 2.3924425509942475 0.1233305240520271 )
( 15.886631412611884 2.5301029507597383 0.1012086820481442 )
( 15.746159910304096 2.6783120904989897 0.0738693324146196 )
( 15.60668519642954 2.8288758515909627 0.0459095278759809 )
( 15.458771063415076 2.985641206246715 0.017136105378862 )
( 15.317639433682146 3.1637876750214424 -0.0112970574269326 )
( 15.173711959693511 3.3492469636665816 -0.03749901983054 )
( 15.02904482913 3.533712579257684 -0.0622806962698863 )
( 14.892200581764008 3.7031904923119945 -0.08115029351381 )
( 14.756240056519516 3.847462019948982 -0.0948446077233422 )
( 14.62981663417808 3.972284451924207 -0.1056592047677807 )
( 14.506732874332585 4.08324697434658 -0.1131733974724873 )
( 14.386902790176205 4.194320702822662 -0.118622535140526 )
( 14.267969025782596 4.316197768139166 -0.1229384541889493 )
( 14.150871642737586 4.450822674114221 -0.1258587097843622 )
( 16.47541224298651 1.8121541148534617 0.1361959431323805 )
( 16.324809343681622 1.910923793831992 0.1452706636116967 )
( 16.15497201360783 2.08096013774047 0.1446761131859595 )
( 15.991562180971837 2.234039072362396 0.1329328951588154 )
( 15.83298207433381 2.369913068931892 0.1127586306952134 )
( 15.677562934234876 2.508112633804629 0.0848347978704095 )
( 15.520136277839043 2.653483131783561 0.0547335995960115 )
( 15.361847450000504 2.80856467721409 0.0259781561885059 )
( 15.196017633217052 2.9701556938743217 -0.0028635364958881 )
( 15.023793817559072 3.1472343712639104 -0.0303521723110038 )
( 14.854948229568013 3.3334029668301555 -0.0546678720930833 )
( 14.692835786414534 3.5158839896194194 -0.0753483934109097 )
( 14.530562175265406 3.684354488846785 -0.0912026748340939 )
( 14.37430478641295 3.827577170816676 -0.1020991906919273 )
( 14.234151761604256 3.94848471851324 -0.1095758904479316 )
( 14.093265302007302 4.06248911288074 -0.1146274145904047 )
( 13.953697409903429 4.176733383201456 -0.1172273034671575 )
( 13.816135852397332 4.302158660925141 -0.1184155119805567 )
( 13.678760584762294 4.443107464074405 -0.1183240266674914 )
( 16.347321390226096 1.7807571308439745 0.1463750481532677 )
( 16.183299325443084 1.8854895091545485 0.1501632447399117 )
( 16.000494885312673 2.055095840922455 0.1426556914801029 )
( 15.824833409247926 2.2021186826678854 0.1250267606369089 )
( 15.652609600472116 2.33985387163944 0.0987754160910897 )
( 15.481868689071804 2.4735896377039603 0.0690165391943005 )
( 15.304152821743518 2.6126942308613805 0.0384209488939478 )
( 15.121216052218344 2.768905816406781 0.0088317510543748 )
( 14.93869941126237 2.9307858101809896 -0.0184529318225771 )
( 14.74726001328386 3.107466542337993 -0.0440306408862728 )
( 14.558561020618654 3.2989665560038075 -0.0660607800774611 )
( 14.37723573102129 3.484468805790394 -0.0831487538385552 )
( 14.196566413500587 3.648969978175135 -0.0957766274477166 )
( 14.02668497591634 3.7921334640072586 -0.1039904004118487 )
( 13.866410417329794 3.914245004322439 -0.1082154702205783 )
( 13.704780721466108 4.028011808362535 -0.110180498439078 )
( 13.542565507334032 4.143499291641646 -0.1101233463679019 )
( 13.38421236861634 4.271391429839692 -0.1091245855485522 )
( 13.228150321483378 4.419609730918776 -0.1078280101272016 )
( 16.22909871138863 1.7496598525687723 0.1526753000786776 )
( 16.057274813063284 1.8592137314892287 0.1506025480368206 )
( 15.856906287514311 2.025828432124115 0.1378951340289278 )
( 15.670766944368218 2.164592677933172 0.115461767124728 )
( 15.485289960151984 2.2972751440685606 0.0853823573653058 )
( 15.29557683429264 2.4290411615469747 0.055215268300616 )
( 15.100020322041225 2.5626739310127933 0.0249111835496973 )
( 14.900587650296892 2.711568749011976 -0.0040007437763392 )
( 14.69880874073483 2.877294398888226 -0.0299529987457039 )
( 14.492653676994394 3.0565060265820856 -0.0535987153436017 )
( 14.285247245661006 3.248033751688705 -0.0726887842159488 )
( 14.079780988075491 3.4397196448842786 -0.0868316878092865 )
( 13.886923717906887 3.602235763732433 -0.0959933585564469 )
( 13.702902049925331 3.745261883065596 -0.1011378129991949 )
( 13.51815920926542 3.869877410890431 -0.1028405800436167 )
( 13.33243354317222 3.983141106138613 -0.1026023897494573 )
( 13.149287273456045 4.10131491267094 -0.1014844862015963 )
( 12.974667595373164 4.234051260193469 -0.1003460308287908 )
( 12.80053881079576 4.390980085887157 -0.0988385485280159 )
( 16.116044977727768 1.7132634370298898 0.1558291479679736 )
( 15.934647110151758 1.825316502926837 0.1481665331109596 )
( 15.719571138593444 1.9898992220295864 0.1297170228249905 )
( 15.523239508355203 2.119705957715474 0.1041154081103817 )
( 15.324217776831867 2.243730138313515 0.073371249348301 )
( 15.11749301972534 2.373979875350304 0.0422124078258992 )
( 14.91153923853637 2.511142969701261 0.0131348957758615 )
( 14.69749361894349 2.65988599076319 -0.0137162976817582 )
( 14.477768754643671 2.8261256791977134 -0.0387319115693072 )
( 14.254092968879924 3.0038140158021154 -0.0597409381235883 )
( 14.029039841748062 3.191744045753873 -0.0756802866804063 )
( 13.804282847947963 3.379188066958509 -0.0864780515997971 )
( 13.59105218212678 3.5455488390343133 -0.0927196781836621 )
( 13.385968871742678 3.6954736169026496 -0.0960302216671179 )
( 13.17870157419916 3.821046514707152 -0.096678112511767 )
( 12.975815137298849 3.9320758778985754 -0.0959692862385063 )
( 12.77926953689455 4.052711225127387 -0.0945487782430064 )
( 12.588768084497108 4.196343906419725 -0.0924569860560907 )
( 12.39682271365364 4.364569403949415 -0.0884518481181755 )
( 16.006533021205854 1.669336164815591 0.1561210998100089 )
( 15.815705228585005 1.7826430528564077 0.1449602782612994 )
( 15.594415942806176 1.944822458023892 0.1216705939226234 )
( 15.38517866332063 2.0719514464680024 0.0928080596040286 )
( 15.175162072429837 2.1948900558048643 0.0615009549521262 )
( 14.95713873455309 2.323446840923894 0.0307788042233337 )
( 14.737445935530934 2.459482130377557 0.0031758895924101 )
( 14.505467289119547 2.604701089675346 -0.0219677767653042 )
( 14.26822495045488 2.7654311279977866 -0.0450434550961621 )
( 14.030928082739084 2.9453577092093988 -0.0630904096152941 )
( 13.78688382640544 3.1389287513811874 -0.0762829624133686 )
( 13.544924904531229 3.322794183845213 -0.0848450060473138 )
( 13.308064871798088 3.489551510918267 -0.0890798780435868 )
( 13.076108114190763 3.639910539528636 -0.0909450296075909 )
( 12.854841452571057 3.760557537680976 -0.0912405836912842 )
( 12.643753594907412 3.874034244414249 -0.0897869338003959 )
( 12.432981391105756 4.002458544153307 -0.0866782469239964 )
( 12.221782207556322 4.154862620322423 -0.0820396995526622 )
( 12.00423416278935 4.338285292255564 -0.0744307534734877 )
( 15.905379674199772 1.6187714496671477 0.154587843231526 )
( 15.710813218018094 1.7322512402995232 0.1397036661512968 )
( 15.479571378774148 1.8924285311888265 0.1136821245347105 )
( 15.258548460307187 2.0182634810706737 0.0829899204303379 )
( 15.036548434163034 2.140690745603106 0.0522035366504436 )
( 14.810979686372598 2.2638521637775777 0.0234100371505906 )
( 14.577657276107042 2.395501609494201 -0.0037115078032688 )
( 14.335597083622822 2.5387030878229897 -0.0279000023516315 )
( 14.081224769560682 2.696273262779416 -0.0484885105590844 )
( 13.823792705910607 2.8774203988783675 -0.0646030562356703 )
( 13.55965773110148 3.0742240951754725 -0.0758893681430226 )
( 13.295186644348302 3.2638072987512285 -0.0825142231284527 )
( 13.039376836047058 3.4336626128414816 -0.0855019171460147 )
( 12.792608624334347 3.576096760843298 -0.0862464111373117 )
( 12.55807940955498 3.694132020420704 -0.0852159177807675 )
( 12.329217005014774 3.817029366886058 -0.0820574317654916 )
( 12.100108851008285 3.959759989190393 -0.0770032532531727 )
( 11.862385862848631 4.116479124795425 -0.0697242627993498 )
( 11.609755788361092 4.306922416043953 -0.0602793174763244 )
( 15.814740865925552 1.5681693774675498 0.1523057530950144 )
( 15.611792872143871 1.6823533819080512 0.1335019855143802 )
( 15.360894355959914 1.8415309830410835 0.103288598957304 )
( 15.131728876975307 1.959719431240409 0.073092992249425 )
( 14.903735502130916 2.0767276104741224 0.0443462498767066 )
( 14.67124704050802 2.1963719326465907 0.017108033190004 )
( 14.425580792309988 2.324295637960914 -0.0088197307768463 )
( 14.168915978034484 2.468481580116491 -0.0321689175749563 )
( 13.902329590366222 2.6245949468177607 -0.0503754392653943 )
( 13.627237349698431 2.801864666867985 -0.0642189899962549 )
( 13.340575862229633 3.000869293418001 -0.074122798981298 )
( 13.05272707598068 3.192544347755719 -0.0792481163952511 )
( 12.777383171896542 3.3660039929581576 -0.0811239680905196 )
( 12.52139693118653 3.5065413179579514 -0.0808115587667443 )
( 12.275699941444122 3.6266642958781663 -0.0781226563286065 )
( 12.027605525124567 3.756848050673752 -0.0732887856142078 )
( 11.770522333628474 3.907490066575884 -0.0664370548216971 )
( 11.500527191455411 4.07785967007484 -0.0576783656618474 )
( 11.229796942744535 4.289806416732144 -0.0491296647642161 )
( 15.73013232932772 1.5194029974009815 0.1484539902914759 )
( 15.5185520689425 1.6324568679501126 0.1275000625178189 )
( 15.255096640068489 1.7873869507304412 0.0949663837055118 )
( 15.017794455707092 1.895801298192972 0.0648272349849496 )
( 14.783208427413228 2.003421700348636 0.0375378442534227 )
( 14.5410253707216 2.1268893091405983 0.0109528606104799 )
( 14.284448835672364 2.249869349265212 -0.0134525503100016 )
( 14.010424581279835 2.3865282888160486 -0.0345628388335087 )
( 13.729144537475069 2.547558054649385 -0.0511350409765603 )
( 13.437648470852048 2.722584408191867 -0.0628346380858772 )
( 13.125183582482554 2.926377250267385 -0.0713578738479082 )
( 12.812985216624948 3.124090288319099 -0.0757994841262418 )
( 12.528138056311844 3.291424669600411 -0.0762300974165528 )
( 12.266982627877251 3.4305817271010794 -0.0740279146808811 )
( 12.0071511906802 3.55782524951776 -0.0702626288075509 )
( 11.735820458791158 3.694703258619985 -0.0642708971847424 )
( 11.446692540138956 3.851474799390201 -0.0553836479148153 )
( 11.14949855380763 4.042678312359857 -0.0480040344742269 )
( 10.88945748860255 4.300491970711103 -0.0422393731944239 )
( 15.651901306822896 1.4706659221238 0.1437234717949616 )
( 15.427820397224558 1.5785737071527697 0.1207893098351298 )
( 15.15773686486344 1.7305226973650871 0.0883308615820815 )
( 14.91891739189258 1.8333719438116047 0.0583764229720269 )
( 14.676033510672951 1.935928064676239 0.0318640519213796 )
( 14.418798977198117 2.055806025680091 0.0061371255918928 )
( 14.149018168682934 2.171263445639571 -0.0174354680613989 )
( 13.86878559215086 2.30527304220608 -0.0361999647124728 )
( 13.570929642808377 2.469169983834979 -0.050950610906699 )
( 13.256128029052777 2.6397701906412028 -0.0615236753194234 )
( 12.93177617291106 2.839413486938048 -0.0681696021762076 )
( 12.603075149473684 3.05097999007008 -0.0712523072251467 )
( 12.306135029940062 3.2183703368292944 -0.070190298190892 )
( 12.03003733401177 3.352943171193168 -0.0664180946306489 )
( 11.745706135178615 3.4871139731014 -0.062389526495746 )
( 11.44116938644593 3.627851633291676 -0.0558842056221907 )
( 11.127606412561594 3.7989713318701264 -0.0481141443049856 )
( 10.831656752074366 4.022667642497964 -0.0435449616295119 )
( 10.600755586069686 4.333888184573002 -0.0377804388328753 )
( 15.575660526619734 1.4202151581326568 0.138461735000832 )
( 15.343828177398128 1.522527324216779 0.114311088204116 )
( 15.066731526000387 1.6676892822994636 0.0817332438435192 )
( 14.82737904227978 1.765641294446286 0.0526368834498561 )
( 14.577897577821728 1.8689385080847465 0.0264814865134604 )
( 14.307506065346857 1.9837189104622783 0.0020075752754978 )
( 14.028146624611528 2.088664544054207 -0.0198733669289244 )
( 13.736666951145278 2.2248776325901294 -0.0369035285317412 )
( 13.42067327284602 2.3913991585462258 -0.0502091259189254 )
( 13.087932663312102 2.5644743545299744 -0.0594117590497327 )
( 12.744239417227451 2.7567779840938704 -0.0637211197264873 )
( 12.40166487623967 2.9573227545637044 -0.0650192847129407 )
( 12.09250400667122 3.129678541065121 -0.0633090112734119 )
( 11.793319839561184 3.2733087128810863 -0.059225634472887 )
( 11.481546545576515 3.4049675936372967 -0.0546425229325478 )
( 11.154066582049143 3.552083500364874 -0.0482639016597781 )
( 10.827468741109003 3.745497804404055 -0.0431117861263582 )
( 10.55368234158168 4.017964749936748 -0.0401496293869905 )
( 10.323442086583452 4.37821258079771 -0.0345265108255536 )
( 15.505341230681214 1.366534148490742 0.1329580120452106 )
( 15.26929775038625 1.4631077845612444 0.1084075680299153 )
( 14.982417274327291 1.5979133329700872 0.075633007013372 )
( 14.74159194381808 1.6943158820348565 0.0476925290863785 )
( 14.483945407840986 1.7938607739746175 0.0218679934737484 )
( 14.200526913421358 1.906315429635264 -0.001902980234512 )
( 13.921160059549834 2.01202054657981 -0.0213834378271767 )
( 13.615595185757336 2.1397719007763585 -0.036482941518366 )
( 13.278193818879814 2.304559743519063 -0.0488582359332081 )
( 12.92599187019188 2.484251630846196 -0.0568123613370882 )
( 12.558561167915355 2.678999667882139 -0.0597832583144083 )
( 12.209858787826851 2.868288164514253 -0.0600020844184377 )
( 11.881771948792837 3.0347832535365318 -0.0580406340891711 )
( 11.55546285114738 3.184588312003197 -0.0532973750324628 )
( 11.22743208395537 3.3236648599283773 -0.0475467944759048 )
( 10.888139437361025 3.489464651295126 -0.0414928259024864 )
( 10.559641763884647 3.7145360606222217 -0.0381075555050887 )
( 10.296076285516142 4.0289621322802365 -0.0359328041559194 )
( 9.97090612249493 4.380551710621929 -0.033083365317488 )
( 15.445455263056406 1.3119951108216856 0.1289072088862003 )
( 15.198267730959278 1.39862984689405 0.102992520574994 )
( 14.904278600806528 1.5259415550643995 0.0703291597696644 )
( 14.6591325565512 1.620410424173769 0.0435584191466525 )
( 14.394596559321046 1.7181952994565617 0.0186855294368381 )
( 14.102066675190992 1.832006850822959 -0.0042587411121812 )
( 13.811860814552746 1.9366653741156077 -0.0223682101177944 )
( 13.499055762177443 2.0555061921030657 -0.0358378329906732 )
( 13.149881732395386 2.212526264606594 -0.0466279631808477 )
( 12.776772675073712 2.38835099074679 -0.0534225466420037 )
( 12.392031872459606 2.5903509023798725 -0.0567747323637233 )
( 12.031446095678492 2.7849107109797404 -0.0569156984568022 )
( 11.679105337593445 2.945409206192213 -0.0540952265945573 )
( 11.332021958984477 3.0904636832524908 -0.0487338696514682 )
( 10.982241971940528 3.251347875499396 -0.0415768739475023 )
( 10.63243214001696 3.439179036438519 -0.0362044713232271 )
( 10.31585484897442 3.6963155864151576 -0.0350433126479471 )
( 10.004173327108976 4.037595544877495 -0.0318255794844349 )
( 9.497215772844497 4.312179711430929 -0.0315874667817206 )
( 15.38607814399621 1.2527943891870632 0.1242281134720696 )
( 15.13561935110565 1.335801950985977 0.0972886686602036 )
( 14.839465626985216 1.454815765890309 0.0652546196272271 )
( 14.58403236714921 1.5397312738436253 0.0392493943116228 )
( 14.31290838862112 1.6386073793167255 0.0158096700960326 )
( 14.015408045397091 1.7557002658086969 -0.0053744853612901 )
( 13.711792418445633 1.854466602544392 -0.0227165868254726 )
( 13.392792123767656 1.9668204487371488 -0.0350753743837288 )
( 13.02519464940028 2.1226803711879736 -0.0444211605532944 )
( 12.63505573611696 2.2975079339928053 -0.0499351067052879 )
( 12.23608553167096 2.4966801578891578 -0.0531531536000905 )
( 11.849585060953354 2.6935207214833534 -0.053049053520349 )
( 11.485457605060006 2.860772591723713 -0.0491469302548267 )
( 11.13172397377778 3.006068359765287 -0.0441430791448511 )
( 10.759239097360297 3.180374310195612 -0.0380535445793128 )
( 10.392018751509626 3.393729895097068 -0.0345875308815271 )
( 10.076605831614598 3.6790029004291696 -0.0325614012106587 )
( 9.674157079958944 4.020256561614496 -0.0288380624991041 )
( 8.881023965066005 4.148389930061211 -0.0305186580873934 )
( 15.329380413439628 1.1903411676103817 0.1171027721044968 )
( 15.078725477889948 1.2736340168785485 0.0911434891078591 )
( 14.779834146398102 1.388321843465208 0.0601260952487074 )
( 14.519518690792903 1.468356205595001 0.0353557375988474 )
( 14.238709253057444 1.5633011177111509 0.0133985734168255 )
( 13.927712994370802 1.6686909637280212 -0.0066690302038602 )
( 13.61405040152352 1.7651092465681952 -0.0230311205154862 )
( 13.288890976899207 1.8745121708476755 -0.034386974705964 )
( 12.896585815713289 2.0296035081579 -0.0424285272808172 )
( 12.490112020503592 2.2106094586513065 -0.0471767878783158 )
( 12.08821493582179 2.404043962205081 -0.0498991048219425 )
( 11.69071632160972 2.601809657149536 -0.0490465472329298 )
( 11.312430208972572 2.7781064007039613 -0.0445379600529865 )
( 10.932689444749665 2.926981340800166 -0.0388801538967358 )
( 10.549498820353866 3.105682957358568 -0.0338049924252456 )
( 10.177147659737772 3.3442080410373487 -0.0316776285227525 )
( 9.811085175079604 3.656537329892701 -0.0300559423243276 )
( 9.33139949903344 3.981339925137121 -0.0294847507113712 )
( 8.069512831128216 3.84611281504131 -0.0286565748988962 )
( 15.278326845978448 1.1336268550885014 0.1104715379892506 )
( 15.022571275262958 1.2122691939989658 0.0864046839069358 )
( 14.721167626644336 1.3220024404296602 0.0565638821837086 )
( 14.460308907310656 1.4012072712015216 0.0333576548251738 )
( 14.169752447917247 1.4887233884241404 0.011875364110772 )
( 13.851916956614158 1.5823654866200698 -0.0079854396329647 )
( 13.529327137065172 1.6827388154761538 -0.0231917235688997 )
( 13.18710846091232 1.7979329766621448 -0.0334349819401364 )
( 12.77567803201526 1.9442463293889063 -0.0403476559098525 )
( 12.348695373185478 2.1250092798207434 -0.0443535451095334 )
( 11.940339109622489 2.312618831917175 -0.0463926998108767 )
( 11.541870462865846 2.4970320887365904 -0.045384868621464 )
( 11.147014074890174 2.6718462227074413 -0.0406259599284078 )
( 10.741522953862887 2.8345212324593576 -0.0347001432190606 )
( 10.34290963270574 3.0277280096757564 -0.0286158685834714 )
( 9.960593592366838 3.288070321785898 -0.0253632574195321 )
( 9.519548751686427 3.614291807603808 -0.0256248335330985 )
( 8.81757056216684 3.837695391241147 -0.0257449951610594 )
( 7.259608413430966 3.504653671842913 -0.0227626967496774 )
( 15.23323327269374 1.0757408550777725 0.1055465535354379 )
( 14.973152520012412 1.1517268026456802 0.0824688656009131 )
( 14.66481995452646 1.2562329576689668 0.0533404431290785 )
( 14.400464519302597 1.3284814983740487 0.0309265840215599 )
( 14.104935307929106 1.4145758895308094 0.0099646997689155 )
( 13.787698142215088 1.510745661755178 -0.0092792105509638 )
( 13.461413804528638 1.6098822142316584 -0.023056976429554 )
( 13.097079160900371 1.7208075014174344 -0.0317521364410997 )
( 12.674263917649904 1.863738090531925 -0.037892087968699 )
( 12.23901794238085 2.0408664339037634 -0.0411762433555912 )
( 11.812399348253727 2.224726643343514 -0.0427229343055204 )
( 11.389814685840564 2.3976669004318616 -0.0419740104800043 )
( 10.974929620444687 2.5635059175245605 -0.0380113146451852 )
( 10.555131766924925 2.7343502803740303 -0.0329588014580907 )
( 10.145821009700782 2.9498842262312275 -0.0272166052816731 )
( 9.73511899236212 3.24273221903921 -0.0244982979971757 )
( 9.228173080947812 3.5600164190379475 -0.0229423690905267 )
( 8.232430850179838 3.613193390167981 -0.0198846403374988 )
( 6.547534182744047 3.178742973021172 -0.019051767322985 )
( 15.193754080111791 1.0153123469022074 0.1013774564785368 )
( 14.934217016773818 1.089830091525496 0.078364474432408 )
( 14.617800681695282 1.1916203428391448 0.0498189123911695 )
( 14.345548560208323 1.2574199943956677 0.0278825614256073 )
( 14.043314223988306 1.3384405275612823 0.0078863579674734 )
( 13.721701592299562 1.4338899811360044 -0.0092577130075907 )
( 13.388753129843929 1.5210942498434616 -0.0215467849646348 )
( 13.012968419851028 1.6291002719270309 -0.0296096042551575 )
( 12.590239020562512 1.7815151083138974 -0.0353355766697551 )
( 12.147254804415832 1.9545285212480543 -0.0385477604131476 )
( 11.697380902071163 2.1384303371460405 -0.0404394418083971 )
( 11.249970781552554 2.3026010394031293 -0.0395582328055659 )
( 10.816133571825045 2.461025002491213 -0.0368564397510169 )
( 10.372449801637012 2.641160332403666 -0.0325323729571148 )
( 9.949309914695164 2.8711037855529047 -0.0271038006402621 )
( 9.48654439109538 3.1805128381602223 -0.0255322694064073 )
( 8.890795342681244 3.462958362925542 -0.0237421218133582 )
( 7.723740348513315 3.385825288965606 -0.0181030675423267 )
( 5.874979047556248 2.839995267741906 -0.0168214430556429 )
( 15.159125648173296 0.9620079273918426 0.0969057851199998 )
( 14.89803455310107 1.0302539412231868 0.0746824282717751 )
( 14.57609198828728 1.1246375160694404 0.0466546491951246 )
( 14.297919915740264 1.1888000939989074 0.0254071537764377 )
( 13.989765407265091 1.2627557931221898 0.0067020758895906 )