/*--------------------------------*- C++ -*----------------------------------*\
| =========                 |                                                 |
| \\      /  F ield         | OpenFOAM: The Open Source CFD Toolbox           |
|  \\    /   O peration     | Version:  2112                                  |
|   \\  /    A nd           | Website:  www.openfoam.com                      |
|    \\/     M anipulation  |                                                 |
\*---------------------------------------------------------------------------*/
FoamFile
{
    version     2.0;
    format      ascii;
    arch        "LSB;label=32;scalar=64";
    class       volScalarField;
    location    "0.0004";
    object      k_LES;
}
// * * * * * * * * * * * * * * * * * * * * * * * * * * * * * * * * * * * * * // 
 
dimensions      [0 2 -2 0 0 0 0];
 
internalField   nonuniform List<scalar> 
13597
(
0.2216461013160531
0.2161543937937634
0.204058616484011
0.1922684052590164
0.1855033985280428
0.1807865854491254
0.1778321951390105
0.1759856730050376
0.175209031259021
0.1757429211681083
0.1763831934996181
0.1780680978818427
0.1809497412634276
0.1834282529045824
0.1856002892926389
0.1881919946275391
0.190918742460756
0.1923551946713876
0.1929534836439462
0.2287742040409495
0.2199909892145292
0.2004868633003053
0.1841687636354044
0.1755018678575318
0.1695638357544197
0.166088976469315
0.1653879890791122
0.1664300691534491
0.1689879795174705
0.1729749327499206
0.177863803358593
0.1836271330640237
0.1891767629331259
0.1936628520880278
0.1979806320170474
0.2016670503685008
0.2038591814577231
0.2050020013698237
0.2324222692790694
0.2204073468156385
0.1971512994872677
0.180315093604343
0.1734528317457297
0.1707327588161691
0.170813178882258
0.1737265470864553
0.1785095033716947
0.1846723369174746
0.1916078588998564
0.1987220120718181
0.2050785268366103
0.2098093884576644
0.2131747052314957
0.2150739444949213
0.2159040258395994
0.2158554317068521
0.2153192612423148
0.2308077924490968
0.216235710912356
0.1939871231720089
0.1803746812728471
0.1767064724178643
0.1773966902853645
0.1813706388450475
0.1873899571380826
0.1938365076610601
0.2003430844045329
0.2059394204450729
0.209976465302927
0.2126374710374098
0.2144107189516037
0.215281326954725
0.2152809877992072
0.2147389485235235
0.2143498534566313
0.2140547278114188
0.2253857062235326
0.2082143126071117
0.1889031199236721
0.1802309565287695
0.1798704204127841
0.1834628612995876
0.1892342871702861
0.1949826727457485
0.1998609313623887
0.203953078548129
0.20702576051337
0.2087908929851064
0.2097012255749019
0.2105155036333599
0.2105468918961232
0.2105284077816334
0.2106890993580252
0.2111477467822655
0.211800324396381
0.2157045695107565
0.1976193600005067
0.1819891607483327
0.1788847637008062
0.1815108323253587
0.1863742984352145
0.1917673634117224
0.1957872932401378
0.1986546783508148
0.2011434258218616
0.2032226587358286
0.2042312877001504
0.2048081839714696
0.20548355135976
0.2056947381155362
0.2059755738317686
0.2067010540100671
0.2072199236051613
0.2078848190267109
0.2025739511411902
0.186420937065301
0.1769059407538648
0.1779690717931759
0.1823177965860241
0.1869077072439824
0.1906505027593717
0.1935880879595496
0.1955312226689194
0.1972212194216321
0.1983819136597644
0.1992442746581245
0.2005146773886214
0.2015636805538985
0.2021648346810526
0.202663407797583
0.2029995415206385
0.2033084022757599
0.2035971013095278
0.1907076406362965
0.1778789979209684
0.1737940110645632
0.1773903709028716
0.1818985155881752
0.1864431500629417
0.1893480039281022
0.1913656559856917
0.1931879168790776
0.194370642389314
0.1952550208215403
0.1964979304644449
0.1978966682940318
0.1990536211055521
0.1997412427604822
0.2001183528773196
0.2003132940690659
0.2007502025177907
0.2009969995712067
0.1807570901126389
0.1714607268626847
0.1714172214654923
0.1770068403784879
0.1819811935908045
0.1862464870298575
0.1891026047976897
0.1912454309704704
0.1930746968822093
0.1939979634497672
0.194896373035496
0.1958921812781854
0.1965144630755984
0.1977059115952176
0.1987225027315619
0.1992824857543301
0.1999886867205846
0.2009252846868842
0.201941804080684
0.1733774643920221
0.1679873661870856
0.1711889629190874
0.178257391976248
0.1840080616491016
0.1882234408181983
0.1909438004713995
0.1928896573152049
0.1942110253110883
0.1947115034749458
0.1953641199766114
0.1960335822147223
0.1966913772899128
0.1980389042750689
0.1993670111739177
0.2007739307167958
0.2025925747158966
0.2046664500390329
0.2071280422734019
0.1688550117697403
0.167548629440993
0.1735579423085
0.1808968189937181
0.1864458234852526
0.1908587914563773
0.1937768406977629
0.1953164099826023
0.1959444347983444
0.196152540444037
0.1964364048923891
0.1971021488261304
0.1982981554984944
0.2001562263953945
0.2024308517418092
0.2051799944163057
0.2084701382675185
0.2122468882228145
0.2167924686493843
0.1672896287898063
0.1697328736690555
0.1779943125315935
0.1852402166940149
0.1907161813022146
0.1946243293051475
0.1969340771226793
0.1979151336962135
0.197863543265394
0.1979512350003877
0.198405430856302
0.199434919234034
0.2012385677239707
0.204191423639076
0.2080440170546834
0.2124831870070684
0.2174305596245555
0.2232162723788414
0.2302739281537502
0.1690805038006345
0.1740093696045744
0.1833552831877837
0.1911291605058738
0.1963963259147758
0.1990874895994841
0.2002504601007919
0.2006776019830545
0.2005152844154746
0.1999904589045367
0.2007369147548452
0.2027858514844319
0.205770429270703
0.2103277831642937
0.215752960899775
0.2218496291945439
0.2292317629179876
0.237844154674565
0.2469976311992767
0.1735496240984241
0.179663808008082
0.1892603286971161
0.1972997744167365
0.2016084305879445
0.203187590953526
0.203677153844464
0.2033156389456055
0.2029562498278224
0.2027342798819622
0.2038925736823771
0.2069968024152383
0.2116645478985188
0.2178380415935034
0.2250111449760064
0.2335244923398982
0.2438528169851747
0.2551200832603646
0.2668489349666585
0.1795158479148517
0.1864726613829673
0.1967527814370853
0.2033373675792297
0.2065216050072113
0.2074677870129184
0.2070627830966272
0.2058115288373601
0.2052020907045112
0.2056693227090978
0.2076536154115034
0.2121272719496114
0.2188212742775479
0.2267783695371544
0.2362764923278835
0.2477542728273056
0.2606793521584567
0.2747445981304657
0.293025197480127
0.1863373309700272
0.1934837341601349
0.2036278134298893
0.2090171204262123
0.2115020334098882
0.2114289581500878
0.2103261057480471
0.2088850472475561
0.2081320580498077
0.2090464070153957
0.2122218447487026
0.2185387323186333
0.2270680627371213
0.2371407403184905
0.2492520018433408
0.263217936637086
0.2791202193554985
0.2992254049568825
0.3296491938533066
0.1929252682305714
0.2007046738144327
0.2099102438359275
0.2141439822129157
0.2155445286701681
0.2148258198957981
0.213448168990596
0.2122178072022263
0.2115216325439126
0.2132528388897526
0.2175517645732508
0.2253657391873332
0.2360590284739592
0.2485976436567006
0.2631649384655203
0.2802222607736662
0.3013424072154298
0.3317341226962864
0.3740925453778161
0.2001540849903758
0.2077789468066546
0.216139097450435
0.2193757288706349
0.219470006984891
0.218182636956981
0.2164586633305743
0.21491109254907
0.2147866810408361
0.2173601282208739
0.2231197159183031
0.2329010974163246
0.2458676612714408
0.2610233507273761
0.2784860004865504
0.2992653250676616
0.3288916961712687
0.3719031077219982
0.4143407571479777
0.2080088634181334
0.21456748984628
0.2221191850485041
0.224471458804334
0.2237991624573283
0.2215935100787227
0.2190610424080619
0.2172684223988562
0.2179072259842419
0.2216088330978252
0.2294157551329212
0.2410797283765484
0.2563107139150449
0.2745974238939905
0.2951765856103566
0.3219239009200361
0.3627488392770558
0.4166861431665818
0.4454780519323829
0.2155974645167236
0.221864099885185
0.2281712878737181
0.2290136008378668
0.2272242170431855
0.2241300916818207
0.2216786432658
0.2201239650270266
0.2212066967836386
0.2261886475109192
0.2361055864181158
0.2500874564460399
0.2676134869273564
0.288464701755557
0.3140372006804597
0.3490372511963261
0.4020543197903412
0.4605718866600531
0.4654935132934443
0.2233322753316877
0.2286370948477875
0.2332509822932651
0.2330658709193467
0.2301980176897945
0.226321221816106
0.2243278605514423
0.2231411358050123
0.2248222104123773
0.2309908735707707
0.2430337071471136
0.260197070291531
0.2796958146701792
0.3024114269678061
0.3341492518300636
0.380669033823954
0.445127389666423
0.500000933347848
0.462172439645281
0.2300335065753669
0.2335547486761245
0.2371517589336451
0.2360626165490656
0.2325474054708797
0.2288060022584329
0.2268997416731142
0.2259715983758833
0.2287102790353034
0.2363688774966701
0.2500278197462309
0.2690612027290526
0.2906467054204517
0.3176033774722236
0.3558619246800403
0.4152194251157644
0.4883301284437885
0.5320021250076671
0.4287992813782371
0.2353007766896981
0.2376521440642297
0.2405030139606543
0.2384215446161039
0.2346470114291651
0.2310887005404087
0.2291990232742762
0.2286913084497932
0.2325122184998394
0.241997746888544
0.2575897813773766
0.2779969027951852
0.3014807164824546
0.3336541948410402
0.3821376058433646
0.4531728172241065
0.5299030939357929
0.5407568343266149
0.3919551147693648
0.2401796132173382
0.2417947483036574
0.2438185353702942
0.2413489459301389
0.236956243386081
0.232757514721393
0.2308394957053392
0.2310527187421037
0.2357698505142095
0.2465676672639408
0.2641509920019118
0.2875556296162413
0.3141353442820663
0.3514792534960752
0.410952978333544
0.4923472364224005
0.5677932529577311
0.5326955417624806
0.3580457878269221
0.2449002392200923
0.2453354888934276
0.2468384582098043
0.2442140629526502
0.2389387147809326
0.2345671655976428
0.2328194067965015
0.2332953184746521
0.2386585763709093
0.2509357835345032
0.2703341078628731
0.296356312501204
0.3267907307635043
0.3723443955194182
0.4406164806225473
0.5286380112540123
0.5947862633419876
0.5209308901107796
0.3204960410570101
0.2491440019724513
0.2484534944501378
0.2495388070224178
0.2463203106196279
0.2405743394537881
0.2367838462971078
0.2352269503244362
0.2355561176388713
0.2416676034321859
0.256011825544112
0.2771508619662353
0.3048389199456742
0.3394073921732077
0.3927418296593791
0.4694501542453833
0.5629683680215316
0.6030242986675476
0.4957895332812175
0.2928800513532807
0.2525713234936612
0.2512765999975623
0.2516695012621834
0.2478896907194088
0.2421534288668453
0.2387125470003136
0.2369778940663499
0.2377483619718014
0.2450963198073527
0.2609465256060368
0.2837040507725094
0.3129939037841234
0.3519006742237703
0.4112293681995638
0.4977827235855317
0.5936851656765507
0.6059510213804217
0.4679836079695475
0.26979920461966
0.255408033793233
0.2535719099459769
0.2534120476009684
0.2497079326323993
0.2441724554931803
0.2404560550995313
0.2383391760169505
0.24012162864619
0.2488198824704718
0.2662295009806759
0.290888831346227
0.3209567424954918
0.363700908717931
0.4301786433153104
0.5282932498111186
0.6227828120634595
0.6154403559416645
0.4495651111125269
0.2502826239471817
0.2579479721987489
0.2558628947935838
0.2551798400985076
0.2513434559503237
0.2458517261085753
0.2418684581554003
0.2397369781909542
0.2423229795545124
0.2521770704288936
0.2712352619462185
0.2973696870232109
0.3295572634845288
0.3785550659226098
0.4503958478287539
0.5551186699688565
0.6444360881696234
0.6160444612064763
0.4333043056308326
0.2387171611369099
0.2600384535220165
0.2576199786049899
0.2565262938268083
0.25225412669142
0.2469467740138052
0.2428460778104303
0.2409074768451912
0.2440128239933222
0.2550346007832574
0.2749458100970976
0.3020939142152656
0.3380130354923583
0.3917870337609811
0.4696075501607096
0.5779951553240331
0.6436690033995245
0.5946692696665082
0.4175663914258753
0.2322552093308611
0.2621429393312246
0.2592987704648042
0.2580591444005758
0.253445036017332
0.2478012629865548
0.2436937889514327
0.2421121130199763
0.2458972806869633
0.2581637076221282
0.2786218385257464
0.3069514839855653
0.3461310223897909
0.4014560628313061
0.4866566492383066
0.5989816692425225
0.6404610875556882
0.5726465444398096
0.4032810519852505
0.2277041423518842
0.2642758725468048
0.2612542011189827
0.2598435492667019
0.2547637894700973
0.2488195962185017
0.2448887767241777
0.2436836125804868
0.2481227707775574
0.2612894967196347
0.2826256205596586
0.3122117664700696
0.3539778665467295
0.4121003737739304
0.5067586873636015
0.6186388548695533
0.6482221559374194
0.5674401911127519
0.3910107107575341
0.2215156692627296
0.2659524203986645
0.2630462844042164
0.2610305042449394
0.2556275892924865
0.2499105846285892
0.2463001451063788
0.2450762496255261
0.2500557944860483
0.2642249684229913
0.2867514390796286
0.3176078321256234
0.3615406830509683
0.4221998280189932
0.5236944831589039
0.6376089100836922
0.6593152712699716
0.5680638951583576
0.3828280823383793
0.2145561147797079
0.2676393310436903
0.2644078648917141
0.2618656834303675
0.2562906838121409
0.2509081217705825
0.2474103059327027
0.2461953314054258
0.2518583890495238
0.2668698758751265
0.2909018336202686
0.3234906718333601
0.3688093891891735
0.4312214921610385
0.5360166526061018
0.6543795569376195
0.6719027280095811
0.5706679610807862
0.3780713418018509
0.2107235439459213
0.2694967417910468
0.2654168519284731
0.2628542231936928
0.2572507735419617
0.2522249692814073
0.2483104410502615
0.2471646283382042
0.2533645286027173
0.2690290647870721
0.2943926938524825
0.3282345333759182
0.3747860894179405
0.4405145117210836
0.5488840687714075
0.6664768538436046
0.6789081081240048
0.5711558102198558
0.3741523041665685
0.2084996735291039
0.2711567482986176
0.2664018446480123
0.2637944609751107
0.2583050238700903
0.2533455789178454
0.2493844329376727
0.2481769326914539
0.2543538564695576
0.2709695772704967
0.2971493185432147
0.3318387411450803
0.3798814203004895
0.4487560712290599
0.5588396321675507
0.6764424223259357
0.6849251670219741
0.5693611348343568
0.3695445971098966
0.2056408752916651
0.2731335306831923
0.2674011009624865
0.2647363768642916
0.2594403653456872
0.2540410555835378
0.2500910384897284
0.2493520891389529
0.255749228957301
0.2730638025247978
0.2998681791634658
0.3353300105677269
0.3849807781259608
0.4560349362269167
0.5677849946352695
0.6852138238698608
0.688814430386528
0.5703547711071666
0.3688563523142787
0.203235105882879
0.2746922156926397
0.2681547857280366
0.2655841450909704
0.260398596620145
0.2548127429523834
0.2505688971620435
0.2503066128300966
0.2571774375617798
0.2751238929655158
0.3022996523818846
0.3385201179202691
0.3896967388915906
0.4644328994749591
0.5774491538584164
0.6897965354271142
0.6901798239271896
0.5691897927790509
0.368424326680379
0.2022369041889481
0.2752785666567228
0.2686798982567959
0.2660378236506412
0.2609549334247927
0.2556368678487972
0.2512155790103783
0.2512260270563549
0.2583049354815803
0.2769485702927964
0.3043814683996328
0.3411306824797415
0.3935976053710759
0.4727663467612275
0.5884023642946289
0.692500926387006
0.688634816278068
0.5642284919957832
0.3650218303737343
0.2022021137779011
0.2761061393911876
0.2695243127858179
0.2663326410480198
0.2614578563398964
0.2564162997896433
0.2518194188464246
0.2521060585802699
0.2592447749477666
0.2782225492945441
0.3060870452828365
0.3430074210926503
0.3965888908632806
0.4779796580321003
0.5967777045091672
0.6955018452790681
0.6848572401442546
0.5608813951158397
0.3630736854434044
0.2023105405711828
0.277399742722593
0.2707657667104495
0.2670115732134048
0.2621062729410531
0.2571734391904013
0.2524842706684081
0.252683286804666
0.2601347305956148
0.2793671599614997
0.307942443878796
0.3452706905269257
0.4000421099198979
0.4825721401147435
0.6018415514995157
0.6964195510124987
0.6801728234348384
0.5565638354782408
0.3606766524953426
0.202453588661223
0.2783408569553265
0.2714428079644753
0.2675682654093247
0.2627951731766476
0.2577067803566389
0.2531948391079582
0.2533363347885218
0.261058018293578
0.2808503465773336
0.3104107097309288
0.3480782623813611
0.403455709943303
0.4868021582752606
0.6049160931851941
0.6974357627852262
0.6786569021772889
0.552217545842561
0.3571082849963995
0.2019399776098749
0.2790535381028398
0.2719186221425671
0.2677639766389967
0.262986994042165
0.2578737864249257
0.2536778853936171
0.2539569346785426
0.2617950139461061
0.2818683323418068
0.312249530870827
0.3504224393386643
0.405590319437609
0.4881227700490115
0.607917123884784
0.7018995404209143
0.6789571000966863
0.5487043974527263
0.3540680132905318
0.2001841810429079
0.280050370621232
0.2729867672794624
0.2685237630138853
0.2632888665970208
0.2580428099993959
0.2540806462265342
0.2543480446486094
0.2623884905378521
0.2829516037827099
0.3140495288612045
0.3526252632918871
0.408129603710754
0.4902864945422248
0.6110485929083868
0.7013468100446174
0.6744106150869582
0.5456129070979132
0.3525303373284086
0.199499654959171
0.185590760101479
0.1835634675549979
0.1809696918492702
0.180597577002873
0.182196927278857
0.1837871799355974
0.1859932292050612
0.189012609222826
0.1926258337695331
0.1957686266873799
0.198752673879428
0.2027364305983966
0.2061365516256337
0.2093182086515995
0.2123616962064429
0.2144330777692702
0.2171202523741677
0.2195501440794743
0.2215047359624402
0.1785849193589165
0.1761014440527065
0.1733190062989741
0.1742355549324318
0.176872150786684
0.1794687905759622
0.1827764564851268
0.186030636576285
0.1889543873962247
0.1915694797843206
0.1945151559041647
0.1984541575434713
0.2018101556155954
0.2047629981313731
0.2079558505937163
0.2101828186845908
0.2127631746150709
0.2156016067727117
0.217770638930396
0.1742964847297084
0.1724388178432604
0.1706208866085474
0.1732353861040649
0.1766337029047274
0.1798713959009945
0.1828417837761899
0.1855482297856767
0.188053736869915
0.1907862621761118
0.1945528392523505
0.1986100599563295
0.2028892576744041
0.2074090197724213
0.2119801657794989
0.2163837654348318
0.2199526162506805
0.2231571115063147
0.2259325622716627
0.1754046131503175
0.1750490229158521
0.175040470837526
0.1788583020445309
0.181856890230095
0.1853148488815921
0.1889366818993295
0.1923472316132266
0.1954309955789675
0.1991033728188257
0.2048912109976645
0.2110833311859028
0.2178027690097927
0.2250429527479749
0.2309641675917016
0.2364031216602007
0.2412554741213088
0.2453596570494076
0.2492611634085608
0.1810208572756036
0.1819993080604505
0.1830551076413947
0.1867027220097707
0.1897063870295755
0.1933882456410132
0.198039373902944
0.2026398182834447
0.2079400202065135
0.2146784213427626
0.2228879210189632
0.2312664535691169
0.2395654160443012
0.2476857778995647
0.253765728825872
0.2587124628821683
0.2630245665343189
0.2658300249503493
0.2676578163888155
0.1881718862396045
0.1892045396279437
0.189707395163432
0.1936571318489307
0.1977078715559584
0.2021483609620004
0.2076942943266216
0.2142486745294942
0.2220468981729309
0.2310193339833894
0.2404399618101299
0.2493483296814043
0.2574309318246948
0.2636105490743207
0.2674814363557848
0.2700959416149006
0.2712140500463871
0.2709737855795007
0.2700254178800587
0.1957366023544394
0.1948922889999904
0.1943752199865469
0.1993459456875159
0.2044440714846055
0.210317164350512
0.2177236434123001
0.2258763260090608
0.2350071759163278
0.2441741303449272
0.252917792553311
0.2601627662192662
0.2655367850609141
0.2690465797905412
0.2704995023133152
0.2708486269584955
0.26991900744117
0.2682420379077445
0.2663094557536993
0.2006174604001439
0.197607443759481
0.1978762066571517
0.2037546725570043
0.2102687152703397
0.2180427359600306
0.2268691946146951
0.2355691081830322
0.244757681442107
0.2526920355779198
0.2594845161804746
0.2647443159108448
0.2673164891745849
0.2688466345910718
0.2692021603980478
0.2688162639632221
0.267724347934853
0.2663352196400971
0.2649343759274159
0.2027022137738327
0.1992323885546884
0.2009310698764245
0.2083383410104568
0.2163754666107265
0.2251755867267239
0.2347251071851589
0.2439220931032549
0.2519337052792917
0.2580495806196771
0.2625643627940809
0.2658945295291178
0.2676033676874147
0.26823951294315
0.2683093273193822
0.2681118905059004
0.2677683468770828
0.2675643787987593
0.2676562064816635
0.2027419646475412
0.2001288673591782
0.2048042136563471
0.2138738727544455
0.2227225580672567
0.2324298780601296
0.2418323723091831
0.2500941140159249
0.2559680575652697
0.2606267441678274
0.2641963082858689
0.2660312473218717
0.2675754716209033
0.2685073983511072
0.2691247692475741
0.2700288494705377
0.2711293690992549
0.272736138531839
0.2750734496532216
0.2019401926298437
0.2015982334200363
0.2091007843285742
0.2198519981385873
0.229626634659776
0.2390717972376523
0.247006653475584
0.2537102997075403
0.2583928518928267
0.2618850263584188
0.2647577752554885
0.2668193825329956
0.2685218078050475
0.270153333812513
0.2722071186033574
0.2746483371579246
0.2777959947613765
0.2817421972990059
0.2865869042775177
0.2026106179299556
0.2047336673114713
0.2141645934051146
0.2257097290275696
0.2356724148637259
0.2441474612033964
0.2509130874738418
0.256338140365221
0.2602308192623146
0.2631330407640753
0.2657837719026461
0.2685511394116621
0.2709411179542652
0.273653751001267
0.2774267383328626
0.2817596770102419
0.2871166988686867
0.2937516266520451
0.3017364100602894
0.2045399793775487
0.2089747750030967
0.2208555689378247
0.232274007755962
0.2414717006014596
0.2487303397751602
0.2541474485615271
0.2582322898764951
0.2613814128319252
0.2643092431636127
0.2671523418347876
0.2707165502956827
0.2744270599525828
0.2786705074009974
0.2843743416206931
0.2911069982042575
0.2992604027522602
0.3092301040398515
0.3211083872682739
0.2082638456108946
0.2153162831863593
0.2281267572278387
0.2385263000543384
0.2466006569548307
0.2521655261316576
0.2566147833646368
0.2600605088939965
0.2630262122296606
0.2658963035344919
0.2689444490506558
0.2734666323038144
0.2788812152228472
0.2850725652926711
0.2930188245591364
0.3029523880044294
0.3143203623369023
0.3276610282297891
0.3436534101891526
0.2151342040431195
0.2227453705210993
0.2343754158343221
0.2438472239157273
0.2508952657802157
0.2555559712380926
0.2590832681766229
0.2615791541693434
0.2640892887250585
0.2672235974149983
0.2714166222131329
0.2771038756814637
0.2843866409134961
0.2930980303508331
0.3034542057318305
0.3165845692077997
0.3316483770123529
0.3490050552912213
0.3725132856357488
0.2234553145374765
0.2303465404632472
0.240952964432711
0.2492336340583706
0.2548808260971853
0.2585464926793314
0.2604653769009259
0.2625265402299164
0.2648514661728292
0.2685614852627734
0.2741504255208482
0.2814358511956993
0.2907832138524938
0.302307128522598
0.3158351889723316
0.3315233921569151
0.3506237141889244
0.3754374747068713
0.4112782060488784
0.2310520623051321
0.2376729551320806
0.2479106413819042
0.2538589005081048
0.25812886002769
0.2602737346753253
0.2612704707934818
0.2636672139329817
0.2662696139882748
0.2705748980407673
0.2770665862874977
0.2863432719121754
0.2980618496722106
0.312165064963539
0.32901909099111
0.3483445756530663
0.3728924796854054
0.408890801326363
0.4567374439873894
0.2388690316426263
0.2447652951446379
0.2540992034608902
0.2581414587828438
0.2606428034105312
0.2619532268311363
0.2627768523705764
0.2646768826708928
0.2674585443498355
0.2726032868468028
0.2803749842427787
0.2921626238640826
0.3066263846801614
0.3234564000783377
0.3432105471842673
0.3677581512749153
0.4010962619157086
0.4514978471183147
0.5030083934941747
0.2473480836012268
0.2518191832318633
0.2585645176246187
0.2615955575177535
0.2623717712378841
0.2628973818961362
0.2639628886533532
0.2655013902952277
0.268676959877666
0.2747843488471734
0.284292265263498
0.298261603653994
0.3155958899321683
0.3356344984071902
0.3589900934133974
0.3906194283253479
0.4359189832324677
0.4978665904846451
0.5358903611664498
0.2557729887902127
0.2585605087294094
0.262224275280578
0.2640097795468785
0.2637170934911635
0.2633453729260441
0.2643523740374219
0.2659333898888372
0.2699795035330994
0.277404454172469
0.2888757328062555
0.3049341948268944
0.3250043477858642
0.3485932478812676
0.376649850310977
0.4162646568647681
0.4759713659746113
0.5402223341648931
0.5523360299350181
0.2632740557082606
0.26441103114808
0.265670512928935
0.2657652703162663
0.2650417178296919
0.2643261295104968
0.2645363191289145
0.2662320511589955
0.2709386099235504
0.2795085652032237
0.2933640861085674
0.3123639567521633
0.3349512355244091
0.3622887635248641
0.3965681481119264
0.4461904426197592
0.517898840255464
0.5785394582455011
0.5476689686819949
0.2699634297517754
0.2687917015265402
0.2689547190838576
0.2676458131416356
0.2658210305860828
0.2650091152570802
0.2646721401936147
0.2665215026338735
0.2719272797911323
0.2817464740852007
0.2976295790684166
0.3193793588561311
0.3451640061170464
0.3761956612271453
0.4165940514101333
0.4801039312847919
0.5629057855974834
0.6155763381043862
0.5068060334396497
0.2756093361190413
0.2721769871096733
0.2717736849112069
0.2696806895658123
0.2662437893731125
0.2651991391168638
0.2651897801444196
0.2668921199052474
0.2732592426188645
0.2846554767319526
0.302281496354103
0.3270777997946308
0.3566307692777377
0.3916789378452369
0.4414297751571455
0.5187547543380939
0.6054768402377252
0.6177594574021159
0.4559533891261802
0.279432392861802
0.2748847709708545
0.2731139170382161
0.2704977609679466
0.2667935958994067
0.2652643998228017
0.2654320556075408
0.2673098182116588
0.2743855208666375
0.2876013746923196
0.3074470435180255
0.3349297059601773
0.3677967966139938
0.4081678422016619
0.4690072014403993
0.5576766253851125
0.6384929538975322
0.5964490729019429
0.4143447474718806
0.2827796793109365
0.2770128659291768
0.274056402862894
0.2708269514929329
0.2674176165544557
0.2653270550007495
0.2650613456690108
0.2672690878822559
0.2753600724320652
0.2906796688184989
0.3133002377642357
0.3429337844883214
0.3788112942475621
0.4267122445052925
0.4970201131977221
0.5904921065557277
0.6581728420809868
0.5808128838448093
0.372499342250235
0.2851741430535057
0.2780580578525694
0.2745432952697081
0.2711097205161139
0.2677791392680019
0.2650156662308424
0.2644928001403879
0.2673675761306345
0.2767231702203392
0.2937564702612893
0.3185348252131669
0.3507774356091212
0.3889972515534592
0.4438939894996368
0.5248009863799022
0.6195218601161222
0.6539831957603992
0.5437714005732479
0.3341149733342736
0.2865802404974534
0.2787035793811048
0.2748864735668349
0.2713017478493054
0.2677630493070005
0.2643657405558187
0.2639074172703904
0.2676628471880235
0.2779320408304706
0.2963089183541696
0.3233551384598543
0.3582383337459828
0.3994170536737116
0.459187929993183
0.5493167169698294
0.6459517141390311
0.6517188022878675
0.5093257692571208
0.3022625354243962
0.2875295426388102
0.2790423323890522
0.2750468703585936
0.2713321538834857
0.2672563089940964
0.2638392537774828
0.2634370558080754
0.2677212059802352
0.2787547130771939
0.2985296905459533
0.3280341444895261
0.364568246156899
0.4104319565533439
0.4768231469478325
0.5754645227768276
0.6730220871952531
0.6608161999423928
0.4917713965658576
0.2810010762730326
0.2885697658481507
0.2796341183377094
0.2751481499995582
0.2711355823029077
0.266475522251318
0.2633826692732698
0.2634351814494913
0.2681531537819536
0.279824125609005
0.3010118538809385
0.3318531810527086
0.3702054554491992
0.421381946860127
0.4940386248070559
0.5973857971755457
0.6854815071727991
0.6548630452345506
0.473183596835829
0.2666016972628007
0.2891175286910938
0.2802731357908241
0.2750227547799446
0.2706177549095094
0.2659911622347309
0.2630603049032359
0.2634962281797492
0.2685788258099746
0.280626705643789
0.302865636485124
0.335372120419776
0.377173190956267
0.4330885466351145
0.5084559153519609
0.6146232201672865
0.6814714954045802
0.625961882754472
0.44603195649972
0.2527349627737871
0.288921327786619
0.2802212135061057
0.2746012099962184
0.2699688038266271
0.2654493241482651
0.2625257061502446
0.263288284977719
0.2687705837459735
0.2813491713829973
0.3044568569904174
0.3384857845218245
0.3826884480752703
0.4401257833659205
0.5202448464567073
0.6332682065193974
0.6790823571076631
0.5987125030293224
0.4211235200812949
0.2408450007052383
0.2889974168827587
0.2800971984190381
0.2748948548004697
0.2695712290408259
0.2648775588902474
0.2620377906897728
0.2628549071553932
0.268783836907535
0.2825921335054583
0.3070987787750414
0.3417858868887428
0.3872304434752376
0.4459343990920901
0.5331482759940405
0.650814820099034
0.6844748794964265
0.5900078268053047
0.4050224383172627
0.230419974288006
0.2896337644369844
0.279745922960193
0.275176219201076
0.269582739686147
0.2645467219210846
0.2616161357352524
0.2620186332695304
0.2684613676062531
0.2835270667093051
0.3094996481501866
0.3453545325205538
0.3921387398420892
0.4535456497606643
0.5478736680510965
0.6660999224435392
0.6935367927851614
0.5881823792963171
0.3937364431721614
0.2250717854968838
0.2894445750045468
0.2792397593795758
0.2750484846840234
0.2698697554992029
0.2643121057349118
0.2611334820326106
0.2613460395763008
0.2678907757394889
0.2836691887610085
0.3103709000180554
0.3467619776864025
0.3954508636495636
0.4593910029224698
0.560089874922999
0.6766590158683199
0.6975076500221065
0.5870725070311722
0.3853868952207905
0.2195835996995763
0.2887598327947791
0.2787543406448047
0.2745442701556797
0.269693618707814
0.2638683868025539
0.2602966831531563
0.2607131425694865
0.2674146073900681
0.2839915951675636
0.3113183219218786
0.3479857457662828
0.3983311147690244
0.4633250970193098
0.5677033819216469
0.6840208966433643
0.7016252084978689
0.5855847457502563
0.3773602254262448
0.2130002193767815
0.2882843722981188
0.2780524779102492
0.2736035650956577
0.2691046242888106
0.2633227355040662
0.2594044807380778
0.2599406866395287
0.2671473750737969
0.2846633241241647
0.3124519104524063
0.3501041380604897
0.4007626782523565
0.4659290164123018
0.5747415194505126
0.6942477086402792
0.7069888314594315
0.5807713524734778
0.3714389481010003
0.2102182533110504
0.2877524587247883
0.2775139159757003
0.2725807371865896
0.2683176922858939
0.2625584185376607
0.2587264312969071
0.2591159519694626
0.2666520334640895
0.2850936935106472
0.3130470014992519
0.3508323794900902
0.4024199352302631
0.4701290116456212
0.5822275060246612
0.7019373471508498
0.709065149271556
0.5770445310171562
0.3687420242376716
0.2093845796271236
0.2870017844740034