/*--------------------------------*- C++ -*----------------------------------*\
| =========                 |                                                 |
| \\      /  F ield         | OpenFOAM: The Open Source CFD Toolbox           |
|  \\    /   O peration     | Version:  2112                                  |
|   \\  /    A nd           | Website:  www.openfoam.com                      |
|    \\/     M anipulation  |                                                 |
\*---------------------------------------------------------------------------*/
FoamFile
{
    version     2.0;
    format      ascii;
    arch        "LSB;label=32;scalar=64";
    class       volVectorField;
    location    "0.0004";
    object      U_LES;
}
// * * * * * * * * * * * * * * * * * * * * * * * * * * * * * * * * * * * * * // 
 
dimensions      [0 1 -1 0 0 0 0];
 
internalField   nonuniform List<vector> 
13597
(
( 17.70569522303301 1.909462967275128 0.1179925244532503 )
( 17.711626595791277 1.950988982147763 0.1235570901345403 )
( 17.734848023722254 2.034289658332973 0.1322131199408419 )
( 17.771218511576173 2.14131034393038 0.1413780693097101 )
( 17.802007572497015 2.2340598322585774 0.149325072584208 )
( 17.82204275580302 2.3117649722279023 0.1568021795306828 )
( 17.84609110254698 2.3882418511740413 0.1637545085438045 )
( 17.87315506509974 2.4718234797254826 0.1711868746310246 )
( 17.90218697178572 2.556674958891101 0.1776808416239267 )
( 17.933752479572565 2.641624381251603 0.1836674682921464 )
( 17.96560212091343 2.7369413021212035 0.1903306146383539 )
( 18.002445071844235 2.8325934072908865 0.1953185800805095 )
( 18.04247162189165 2.927760573966518 0.1990437103282 )
( 18.0816222775986 3.028939237358381 0.2031425582084355 )
( 18.120425018147284 3.132575355250277 0.2080898541869 )
( 18.16165004535828 3.235665464889391 0.2134189480958216 )
( 18.20585400987341 3.3354393118250583 0.2170507468918373 )
( 18.249879809574885 3.435197774267602 0.219084956029249 )
( 18.294711550335645 3.538589654743865 0.2201860892815682 )
( 17.55347879573007 1.9653241424056689 0.1430465636905701 )
( 17.538390371061922 2.0201137470747863 0.1528558612880075 )
( 17.538448567550702 2.129703966186934 0.1695959424243116 )
( 17.5440469662428 2.2546455094021955 0.1882654779350339 )
( 17.543066823072234 2.353963922152447 0.2038325614030277 )
( 17.538849833325493 2.447276012329368 0.2185122487154536 )
( 17.540322807442788 2.5413052421117395 0.2320885164587933 )
( 17.542823971929664 2.6412862747666908 0.2462059456371532 )
( 17.5485277460313 2.7437223622536586 0.2589295115988655 )
( 17.555458311037224 2.8469555208700665 0.2700314383197001 )
( 17.561663689122195 2.9620878433987627 0.2814219703941238 )
( 17.567385885613508 3.084226585761809 0.2913023840527065 )
( 17.572556335695104 3.2075770684703966 0.2993134065354372 )
( 17.580212112311703 3.3349513575281016 0.3055085604581272 )
( 17.587979937300116 3.460007095187404 0.3101480439539653 )
( 17.598462651461386 3.57823158482665 0.3133170018830568 )
( 17.60996144709923 3.687327253712736 0.3145958767059997 )
( 17.619317942832982 3.798864897199837 0.3140191310801101 )
( 17.633556208551123 3.9095507750547456 0.3114886525360166 )
( 17.389544351651978 2.009702990338139 0.1638109270341578 )
( 17.347630676714864 2.0750282282327746 0.1787755732384415 )
( 17.32006025111936 2.201992596119269 0.203054698268591 )
( 17.29332803105221 2.33960260669074 0.2288121269204298 )
( 17.260853804196795 2.446428186888138 0.2483712160596737 )
( 17.235227105341327 2.552497162425908 0.2658870564898307 )
( 17.215414747627097 2.66246202727268 0.2809273110691987 )
( 17.18905391947767 2.7756838992411432 0.2943462778408026 )
( 17.16648520296266 2.8943814339868834 0.3059076060931264 )
( 17.148161635605707 3.0226490248890574 0.3151837075274961 )
( 17.12709335547812 3.157788478084739 0.3224536614093121 )
( 17.104842254686687 3.302382141142417 0.3270079164664417 )
( 17.08334898197791 3.4510104885737545 0.3283754056852332 )
( 17.0648217925945 3.5935555380446207 0.3266385280991413 )
( 17.048959911398875 3.72453573749374 0.3227890446390287 )
( 17.036013168635055 3.840574003879178 0.3174709956398917 )
( 17.021016198669017 3.945024440193561 0.3105923724132696 )
( 17.004619172123956 4.050305763184038 0.3017974284681124 )
( 16.99721337086373 4.158838958362876 0.2919016712795372 )
( 17.21348254779323 2.0424114446193307 0.1824749974256199 )
( 17.146730417647007 2.1157956695944447 0.2020124593143889 )
( 17.095584187795428 2.251782099088472 0.2301088750126869 )
( 17.0413641547953 2.3977408796964954 0.2573253049005495 )
( 16.98061130786631 2.5138208886826354 0.2761705602870129 )
( 16.929061363324365 2.628718899200676 0.2904351354117512 )
( 16.87876647214931 2.7520823314515512 0.301292812031676 )
( 16.824847395958287 2.8796948253492403 0.3085136967467108 )
( 16.77893217668373 3.012745406116958 0.312763641359529 )
( 16.737517280513515 3.1550007234874524 0.313784290781914 )
( 16.69175632941699 3.3059930280627423 0.3107136354875066 )
( 16.65053883635069 3.463200001409457 0.3044192797314717 )
( 16.613495656509798 3.620084506258536 0.2954281614351063 )
( 16.575186779612462 3.7700867166950833 0.283993001993623 )
( 16.537427981200093 3.8992139567541937 0.2715761688724159 )
( 16.502169776736796 4.009649135752823 0.2593955340076939 )
( 16.4671075382719 4.110099731793925 0.2470950156317777 )
( 16.42958184457829 4.211876281873482 0.2336512596381506 )
( 16.39637105176106 4.324002731574403 0.2191045465162932 )
( 17.038395124074025 2.062390624613846 0.1993513952249009 )
( 16.95650389171373 2.143242934296671 0.22060944557679 )
( 16.881714581268373 2.2887500787520025 0.2490165077886509 )
( 16.79986646666853 2.438945405073522 0.2713743904948683 )
( 16.717128162033475 2.560379560684336 0.2835058078712791 )
( 16.642273511301653 2.6824109828390355 0.2907928292176829 )
( 16.5657804762245 2.8151336019946536 0.2934744186701146 )
( 16.490456496628905 2.951843128448973 0.2918170056991128 )
( 16.423331747137432 3.0912956705064376 0.286489570001499 )
( 16.35809109928378 3.240397582507429 0.2777582689773847 )
( 16.29052640046834 3.403539862121951 0.2657708406660088 )
( 16.22639404577208 3.570637401045272 0.2519112736337486 )
( 16.16461589313192 3.7326341875036553 0.2361572386925714 )
( 16.101321909975855 3.8840304342430256 0.2192347371900488 )
( 16.03687099780283 4.008205931106002 0.2026175745173576 )
( 15.974082413714315 4.119188813940684 0.1869655774506094 )
( 15.914481032401545 4.225315319191253 0.1722259529187554 )
( 15.855137691908444 4.331767485840086 0.1573279094750785 )
( 15.796400344089657 4.450603641040621 0.1417350553737713 )
( 16.873549936777323 2.067732571790686 0.2123048640130903 )
( 16.77767386005835 2.1562931577499262 0.2324801067975151 )
( 16.677437817045572 2.313248500067437 0.2568540328164463 )
( 16.57432852356763 2.465721107066971 0.2711821840734326 )
( 16.475621650448094 2.590387613813123 0.2745581636132973 )
( 16.38302483705602 2.7185535785025774 0.2735327301117722 )
( 16.291176915980493 2.8531826663093955 0.2674773480721388 )
( 16.19635523097754 2.9923427982087536 0.2573006784132677 )
( 16.100585592324588 3.137669313635279 0.2439574806509322 )
( 16.007517716645136 3.2991685784004026 0.2280468367043269 )
( 15.918033924373574 3.4685234838133736 0.2112311274662584 )
( 15.826401600784571 3.6377530204353454 0.1931505935264265 )
( 15.73736194314912 3.803239110228193 0.1740212797050707 )
( 15.650513574260426 3.953107368426347 0.1556078778717942 )
( 15.561602614903494 4.077825875209717 0.1381172280463121 )
( 15.47885907169664 4.187603949279467 0.1225510499388505 )
( 15.397957992693692 4.293843636411346 0.1080516921139322 )
( 15.316299255867545 4.401654135358443 0.0937817170081719 )
( 15.235560389576158 4.523474315214453 0.0797979021386412 )
( 16.713681835938267 2.0634462191274694 0.2207168974889392 )
( 16.6044342295412 2.160822290982132 0.2374334188521982 )
( 16.486868335834984 2.3252663197849563 0.2537233048763087 )
( 16.36858014814813 2.476474144863682 0.2583028369211338 )
( 16.25633440320588 2.601851505666962 0.2536477428614894 )
( 16.14463907133372 2.7317199735737008 0.2442224520100377 )
( 16.03367013573586 2.868861788449465 0.2313585286873959 )
( 15.919611245636576 3.012044524987727 0.2152454148311024 )
( 15.798698334370828 3.1605006834573754 0.1968599722119542 )
( 15.68455164808254 3.325670535067833 0.17829686056739 )
( 15.570206669691602 3.499333035463627 0.1588475016421333 )
( 15.45034678188531 3.673144136141681 0.1385885250081745 )
( 15.337183538791468 3.836718530245709 0.1197035717982798 )
( 15.227388992048152 3.982524148120808 0.1021586327731266 )
( 15.116489912183235 4.110651447389709 0.0854717383372954 )
( 15.011462669432632 4.218440847272291 0.0711583799814737 )
( 14.910076099796145 4.322126803619191 0.0582639679694533 )
( 14.806969389367904 4.434059162078549 0.0454603722892451 )
( 14.705000784022875 4.559005955848788 0.0330101470989812 )
( 16.568106973275377 2.0521039413910063 0.2241244716202302 )
( 16.44706673130598 2.1532387416629644 0.2347057964061249 )
( 16.315358471180627 2.320430937502568 0.2414376642605492 )
( 16.18212719930158 2.4708045207376133 0.2369401509328377 )
( 16.054007368848918 2.597075781607733 0.2251809573620602 )
( 15.92451999097016 2.7296038705318506 0.2100693476711743 )
( 15.791757984424942 2.8707285536946348 0.1925486178696194 )
( 15.658288173158944 3.013255861848169 0.1730325682928857 )
( 15.515476236164416 3.161924208052578 0.1522956805102249 )
( 15.37823469469067 3.3312283276066528 0.1328836023430954 )
( 15.236886362144393 3.5084413951994016 0.112749017404849 )
( 15.09371406801063 3.685557751649309 0.0928903307118236 )
( 14.957400410819744 3.84874013458201 0.0752967620018893 )
( 14.82122271921418 3.988277338985596 0.0586149685905852 )
( 14.69358070352977 4.109526421400141 0.0441154587168494 )
( 14.568363195942196 4.217364407251067 0.031133089535916 )
( 14.44589167971066 4.324808097515697 0.0191454689365946 )
( 14.323716335854998 4.44272151930483 0.0079141003629224 )
( 14.202788280851456 4.572567744627778 -0.0028116661224655 )
( 16.436185423793116 2.0290429156574 0.221023771444742 )
( 16.30312601992772 2.1294567604842967 0.223743522533994 )
( 16.15636998024482 2.2986013493380564 0.2217870054765472 )
( 16.010288605134136 2.448839012037136 0.2112483651730912 )
( 15.863967379558222 2.579153974465485 0.1946679238728622 )
( 15.719254160658812 2.711198836001438 0.1757888497521604 )
( 15.569727109644155 2.849529501029656 0.1553572220318891 )
( 15.41752436708169 2.9966478165540744 0.135471939365628 )
( 15.257103842279763 3.1506344252039025 0.1150998904565604 )
( 15.087669688299364 3.3195127360907724 0.0937993250241338 )
( 14.92011034960606 3.49829776991777 0.0742371775712823 )
( 14.758370461868257 3.673780055321274 0.0564779879609736 )
( 14.595194287876822 3.836026512889093 0.03943897291783 )
( 14.437070721679936 3.974599630042982 0.0237665835473782 )
( 14.293894390079464 4.091374096088863 0.0110679545952393 )
( 14.149426962104508 4.201569003843704 -0.0007851056289111 )
( 14.006194241950691 4.311767440898202 -0.0115756328348817 )
( 13.864200820672902 4.432321974947716 -0.0208151159415929 )
( 13.722101177489703 4.567606485883024 -0.0289294083383103 )
( 16.312405845909254 2.001999452001968 0.2135376371837401 )
( 16.169206413602662 2.107851846152185 0.2090697000708418 )
( 16.009358535439944 2.275774195968215 0.1999024366423866 )
( 15.849873784006752 2.419769176737103 0.184477391501589 )
( 15.689760815204115 2.55246211126491 0.165134740794825 )
( 15.5295000673909 2.680450862593068 0.1440866074250289 )
( 15.35911780125778 2.812768575945861 0.1220893110839687 )
( 15.181074620725065 2.961296689053955 0.1009152684074566 )
( 15.002267668629964 3.116312911962446 0.0811476943063059 )
( 14.812061285720496 3.285280342192701 0.0612854988022724 )
( 14.62298983790541 3.469095859147047 0.0427263030914961 )
( 14.4408824134437 3.64718802957512 0.0261047533674157 )
( 14.257770878955704 3.805231088915113 0.010310723873518 )
( 14.083989134010292 3.943518836571384 -0.0034117372893664 )
( 13.91941396838048 4.061151203054314 -0.0148470332124674 )
( 13.753504517549924 4.170731108767332 -0.0250778813551123 )
( 13.58707506731496 4.281723059831741 -0.0337755452684036 )
( 13.42421701549922 4.404289267201808 -0.0412764956253609 )
( 13.263929493397114 4.546383952650261 -0.0481533398387972 )
( 16.204085398253724 1.9729420967562503 0.2031790667465131 )
( 16.053457699757022 2.083670629498322 0.193000288498973 )
( 15.874092101020947 2.248508516669069 0.1776381241374214 )
( 15.702697165062872 2.3838797089609165 0.1586290645659478 )
( 15.52979439990484 2.512362580284525 0.1375158825381871 )
( 15.349009011235164 2.638321922778418 0.115270808883913 )
( 15.158530438187498 2.7658139442986784 0.0925142650143776 )
( 14.962570041712665 2.9084726656338686 0.0708008685207683 )
( 14.762734983316424 3.067307714015887 0.0519667762619922 )
( 14.556724262919012 3.239034748891344 0.034562011550654 )
( 14.347705189284468 3.422828850561737 0.0171359944568478 )
( 14.139311614087411 3.606688809066185 0.0011730509172107 )
( 13.94252192506877 3.7624827713904967 -0.0125024936980267 )
( 13.753690751889485 3.900087837894804 -0.0241710661901851 )
( 13.564059180456418 4.020251122175742 -0.0343714872154833 )
( 13.374058814639175 4.1290418690233786 -0.0432491207119511 )
( 13.186881598719062 4.242244496619657 -0.0510372482826082 )
( 13.008361825745094 4.369666150878291 -0.0580093325489823 )
( 12.831059896211173 4.520523789740852 -0.0641836600697832 )
( 16.104715936594392 1.9376184301912869 0.189443975290493 )
( 15.94191506185436 2.0509609400570734 0.174465718384712 )
( 15.745510156929656 2.2146833656704854 0.1549490027052199 )
( 15.563132809028396 2.341368938724034 0.1339984144668134 )
( 15.374805222054745 2.461481299756824 0.1115161308518802 )
( 15.175151038083904 2.585669590241645 0.0887161663282364 )
( 14.972938954834053 2.7169217936375003 0.0669242978371567 )
( 14.760709457527508 2.8600004175386973 0.0466634302225793 )
( 14.541024592583176 3.0192895692177046 0.0289772319622167 )
( 14.316326890177075 3.18979145919142 0.0118146557645289 )
( 14.088165501083214 3.370336606536064 -0.0040827830939907 )
( 13.858858219603444 3.5500615535963136 -0.0182545463084363 )
( 13.640736007424907 3.709508324499352 -0.0307202925392636 )
( 13.430480835768302 3.853458813159124 -0.0412552163299375 )
( 13.218083194146072 3.974156836326338 -0.0505748884890629 )
( 13.01090873807501 4.0807013170186455 -0.0587020941340622 )
( 12.81122902456071 4.196442818096976 -0.0658787318418229 )
( 12.618062041114758 4.334875089501008 -0.0719124842940217 )
( 12.424334218331191 4.497279456601344 -0.0760005996986337 )
( 16.00953427537744 1.8930206614338252 0.1740982851834167 )
( 15.835553061768987 2.007511328614278 0.1554119719187467 )
( 15.629545166240131 2.170286327609392 0.1334579922012482 )
( 15.43238256126836 2.29537170539998 0.1114415944645332 )
( 15.230460856433083 2.4151133207210247 0.0886913410739483 )
( 15.016851359985331 2.537786865343389 0.0664094394257173 )
( 14.7996268060299 2.667770084187544 0.0461006398198456 )
( 14.567974565904356 2.807423152287583 0.0268104132367005 )
( 14.328652125627766 2.9617635504278312 0.0090637327666936 )
( 14.08855321927273 3.134181402286526 -0.0072435194511399 )
( 13.84037844770088 3.319943367102889 -0.0217599083536481 )
( 13.593500862917471 3.496508240375852 -0.0346561314951431 )
( 13.351463735009014 3.656222691071167 -0.045783788955171 )
( 13.114232038964891 3.800753751303341 -0.0555927639459905 )
( 12.88841892125206 3.9166260332903975 -0.0645016364667925 )
( 12.67378220142716 4.02569656706175 -0.0716260563713062 )
( 12.46086682380378 4.149858725889297 -0.0772451645462023 )
( 12.248494091220422 4.297453282167861 -0.0810868631671214 )
( 12.03019469968408 4.474143878594844 -0.0821206459357779 )
( 15.922075798422542 1.840458575248594 0.1577657197256382 )
( 15.742282090744544 1.9569970953051887 0.1368086238157701 )
( 15.522571334064754 2.1188947143052825 0.1131264563759735 )
( 15.311145563819908 2.2428212414323334 0.0910825299600379 )
( 15.094692918655786 2.362151440528217 0.0687814227556891 )
( 14.871427985608626 2.480454882293515 0.0472321820929207 )
( 14.638852198641322 2.6067775652497485 0.0278974730590997 )
( 14.395606757535775 2.743894652025518 0.0100154113909847 )
( 14.137819574838376 2.8952622377366204 -0.0072701990071227 )
( 13.875993182412817 3.06919386706376 -0.0227671282473726 )
( 13.607554105432373 3.25794302653569 -0.0364315286499633 )
( 13.337780114128408 3.440021367466872 -0.0486105421110169 )
( 13.07616442266434 3.602800019486417 -0.0583499816151583 )
( 12.824756338278826 3.73972589709754 -0.0673031757740109 )
( 12.586881511773168 3.853491697089447 -0.0754747943208145 )
( 12.355676692054288 3.972341264319135 -0.0812970955222735 )
( 12.125228623919543 4.111207675486622 -0.0851072819348822 )
( 11.887022636174663 4.263115513196657 -0.0864318008096748 )
( 11.635152912378835 4.446362901011945 -0.0852008536822587 )
( 15.843017878939364 1.7879101993725777 0.1419109976152643 )
( 15.651818532815998 1.9073882890386 0.1186626108336403 )
( 15.410465330433857 2.0701658292152767 0.0934096786136065 )
( 15.188093524654724 2.1856180793408466 0.0715494735626301 )
( 14.963252761146997 2.298870311443661 0.0502518006100343 )
( 14.7319170835304 2.4148958898155777 0.0302493716207826 )
( 14.48499629343744 2.5380779898186145 0.0118084229393172 )
( 14.225332857872246 2.675669183821988 -0.0052442861948267 )
( 13.954961787087168 2.825563447651719 -0.021557010230802 )
( 13.674386070736212 2.996205259420007 -0.0364987168426191 )
( 13.38258095814607 3.187081725319542 -0.0495629597431502 )
( 13.088908681933566 3.370969896149749 -0.0602924697012577 )
( 12.80797336214964 3.5377600694800946 -0.0691575085991535 )
( 12.548675653529564 3.6732879659025817 -0.077382574519792 )
( 12.300433772995712 3.7898345652942016 -0.0837869659486094 )
( 12.051151163930964 3.916473912537738 -0.0880822709819423 )
( 11.793762837153192 4.063117685835124 -0.0903122504856432 )
( 11.524889898369588 4.228194919436747 -0.0897655204597513 )
( 11.260589839523211 4.434933744487593 -0.0882785344573912 )
( 15.76940719101911 1.7363543766911689 0.1273427927499365 )
( 15.566208643600724 1.8551343767086168 0.1032356413619842 )
( 15.30948651157781 2.015162089281761 0.0774051202390293 )
( 15.0756625446189 2.123117759255233 0.0545491880061066 )
( 14.842220746317484 2.227795197301924 0.0336153781787851 )
( 14.600380554250432 2.347002133363565 0.0156205496457504 )
( 14.341220836270866 2.4652619074006523 -0.002039476035731 )
( 14.062934714409476 2.5964127197523017 -0.019037741379448 )
( 13.776475681350208 2.751267461081205 -0.0345046742667299 )
( 13.47893314186934 2.919148597185023 -0.048291323417432 )
( 13.160531578705251 3.114631637688868 -0.0605496362178708 )
( 12.8426373010733 3.304497001889497 -0.0704572496245965 )
( 12.553983960540018 3.465853520769898 -0.0784590065126888 )
( 12.290353991126317 3.600994450095627 -0.0849535849619047 )
( 12.02847925841823 3.7251611647216953 -0.0896206840448115 )
( 11.75718325644757 3.858487004749681 -0.0927887303573285 )
( 11.469580561045106 4.011082947067502 -0.0929702163760397 )
( 11.177709210609208 4.198353386397487 -0.0928357304422834 )
( 10.931684440659138 4.455073863501416 -0.0932785615293494 )
( 15.700633583859528 1.6837117074015984 0.1133754220867053 )
( 15.482763889021424 1.798598202136533 0.0890941750377408 )
( 15.21572211348908 1.9569934686818105 0.0633739722109278 )
( 14.977428071221109 2.0611508295516416 0.0406930466228619 )
( 14.73342969912786 2.161986186191311 0.0204983414641039 )
( 14.47531655650253 2.27772435459628 0.0027403024798805 )
( 14.202141674479028 2.3889438290666845 -0.0148555418427214 )
( 13.917079629441664 2.518249734936609 -0.030864332180454 )
( 13.613255033718255 2.67546532287351 -0.0452230489797001 )
( 13.29162773073335 2.8385323096138766 -0.0584506393226802 )
( 12.961490683894144 3.0300446187433807 -0.0692285670759038 )
( 12.628249011623303 3.23355619700426 -0.0780136358220541 )
( 12.328446155334513 3.3958943531820145 -0.0848903029626861 )
( 12.050207322930325 3.5273782981073176 -0.0896570430124409 )
( 11.764633039917967 3.658320222724488 -0.0939805332546384 )
( 11.461334647263136 3.795722973209828 -0.0964361380338972 )
( 11.152064452420868 3.963848582853744 -0.0965519558882292 )
( 10.866849473910888 4.187234612973939 -0.0982908584648843 )
( 10.654371669244666 4.499788195640707 -0.0979140911316741 )
( 15.631992590615804 1.6304382107351632 0.0996899989612249 )
( 15.40341471854388 1.7411811592667314 0.0751365743780099 )
( 15.12685961445103 1.894221659898062 0.0495708172614703 )
( 14.886039221863514 1.994076730748069 0.0280846718975123 )
( 14.63389551534117 2.096523160574215 0.0091066146644495 )
( 14.3611844510246 2.207950828866853 -0.0087087925690948 )
( 14.07748420453244 2.3086543377907347 -0.0261094169850863 )
( 13.78020165202266 2.439117343479361 -0.0407517265107039 )
( 13.457661921825729 2.5988913387773045 -0.0540839537795864 )
( 13.11824295884249 2.764933864361647 -0.066332938860654 )
( 12.769420557476383 2.949417518361433 -0.0761784527958992 )
( 12.422769682524503 3.14272342769525 -0.0840720634990934 )
( 12.110926017076462 3.310678374599084 -0.0898418816842315 )
( 11.810670413341528 3.451292216660968 -0.0938342849857109 )
( 11.498936971461909 3.580281089543495 -0.0973374758270256 )
( 11.174305891194123 3.724942151320513 -0.099008411620337 )
( 10.855475353087218 3.917985614987925 -0.1008756664304383 )
( 10.59749328424525 4.193749114847287 -0.1030506397483998 )
( 10.384573226636588 4.551435940874427 -0.0998242372465139 )
( 15.5681747188537 1.574469875358861 0.0879862733046577 )
( 15.33182402152457 1.6801427326477252 0.063360903342608 )
( 15.0429949784886 1.8244273736161845 0.0369947976029398 )
( 14.79916741193508 1.924282213116221 0.0163331841212942 )
( 14.538308503237882 2.023477857132882 -0.0016124429576008 )
( 14.251087119067511 2.132618940341012 -0.018993640009019 )
( 13.966417735249172 2.2333921021744305 -0.0353703590125134 )
( 13.654396132359068 2.35468637956091 -0.0493801520653941 )
( 13.309851666057035 2.5134133371003204 -0.0623494034944014 )
( 12.95149227435274 2.6864812949401453 -0.0736178604218341 )
( 12.57904137516983 2.87358372676073 -0.0826599700094793 )
( 12.226656565691922 3.0567877314667284 -0.0900518875381697 )
( 11.89687847604521 3.21939312651636 -0.0955100568762885 )
( 11.570588720739584 3.3666224757923566 -0.098333305917504 )
( 11.2438614189413 3.503590697571913 -0.0997817174040446 )
( 10.90973590548881 3.6687052741913058 -0.100794948968204 )
( 10.593359952789786 3.89695138112002 -0.104214661695987 )
( 10.348424935975492 4.216157125029575 -0.1061350411145812 )
( 10.034993291366582 4.557349539150136 -0.1016500848170089 )
( 15.512742699733325 1.5169722452475929 0.077628427936042 )
( 15.263543432125587 1.614069040020044 0.0526001004834403 )
( 14.964804268818732 1.7525626215373211 0.0259228738277375 )
( 14.715132148474495 1.8515006996069647 0.0061420609316112 )
( 14.4466454071842 1.9489808987049253 -0.0111305239520195 )
( 14.14918597319913 2.059428779277054 -0.0279714250427101 )
( 13.85269852177622 2.1592287185053465 -0.0432630163789497 )
( 13.533406489580798 2.272036164181886 -0.056733109109519 )
( 13.176963076175271 2.4231545474586653 -0.0691898249978787 )
( 12.797147482719724 2.592316312761414 -0.0802711367642599 )
( 12.40734287739739 2.7872479876475644 -0.0889295318934965 )
( 12.044199160990972 2.976665282943821 -0.0953615351037388 )
( 11.691688104392464 3.133825678053667 -0.1007301221607554 )
( 11.345417630399982 3.276817662914167 -0.1029558817400212 )
( 10.998653740228711 3.436607616378478 -0.1024565669396042 )
( 10.656462318740674 3.626066069784687 -0.1036288677689716 )
( 10.355788710196848 3.8895237751621514 -0.1080207395349449 )
( 10.062724137211449 4.233541994554658 -0.1066545522424797 )
( 9.561441548528803 4.488908417508791 -0.101301854027984 )
( 15.457195865700054 1.4539233118994133 0.0673533611633451 )
( 15.202923606285848 1.5501306555780678 0.0429210332734544 )
( 14.899932298774864 1.6818757203870458 0.0169679385702393 )
( 14.638553860881478 1.7714177155161106 -0.0027818074759385 )
( 14.362299285775729 1.8699809399470535 -0.019993835909112 )
( 14.059101263532984 1.983723588328933 -0.036116247816073 )
( 13.748410905733891 2.078489952573788 -0.0504072938536628 )
( 13.422382070386345 2.1851085632631757 -0.063119794184433 )
( 13.047497884027678 2.3347433797430823 -0.0749978548299102 )
( 12.650938277342949 2.502935373604838 -0.0856528760200216 )
( 12.247017899207018 2.6962861448065536 -0.0943904368025423 )
( 11.85870222115455 2.8890473977746267 -0.1002726105178735 )
( 11.495635435628358 3.053149516924462 -0.1041951019353385 )
( 11.143080873452332 3.196546402486982 -0.1054623006501815 )
( 10.775600048539388 3.371473676449269 -0.106077389222319 )
( 10.41961524963866 3.5899451813030354 -0.1091619431390413 )
( 10.121576823780252 3.88349381093342 -0.1105347942136816 )
( 9.735588958373311 4.2233121545645576 -0.106218663353894 )
( 8.941760002758835 4.321224457143523 -0.0992055899287287 )
( 15.40296671942787 1.388885686557732 0.0579221145651352 )
( 15.146462147416672 1.486278745532179 0.0344492950991381 )
( 14.839125696118042 1.6151665474883707 0.009021939691131 )
( 14.571740170838492 1.6998911929498033 -0.0103045850323032 )
( 14.284306910302991 1.7943003325997264 -0.0273415043194999 )
( 13.96645560312255 1.8972172491447 -0.043639533222311 )
( 13.646193772914616 1.9903765116879453 -0.0575535208634429 )
( 13.313918322970096 2.094273516671241 -0.0699417504997838 )
( 12.914067987928606 2.243190209668289 -0.0813871430701416 )
( 12.501757406432253 2.4177157855342952 -0.0909226780644143 )
( 12.095433788708398 2.6061105303129857 -0.0988537087216519 )
( 11.69706484973466 2.8002451605100904 -0.1037521020365029 )
( 11.320443271053888 2.973551560238944 -0.1062849045245415 )
( 10.942369816011908 3.1216816851762177 -0.1065014853367673 )
( 10.565576588673606 3.3034015665825 -0.1075729592391866 )
( 10.207450115050278 3.5509208278938016 -0.1112789947066041 )
( 9.859253403688522 3.872035183603783 -0.111317677852404 )
( 9.392475421127372 4.190340270478931 -0.1080412894493773 )
( 8.124514514680751 4.013006668952481 -0.0935514889197584 )
( 15.352918529512635 1.330465242325337 0.0495285492839187 )
( 15.089577079677923 1.423170714094621 0.0262879926299153 )
( 14.77864686833787 1.5477377956382643 0.0012701143556766 )
( 14.509985117334132 1.6317842937180935 -0.0169112807713289 )
( 14.2121140006541 1.7194366634015703 -0.0338468072409937 )
( 13.886445069508612 1.8115565515349217 -0.0501418428004783 )
( 13.557484565318209 1.908450138619628 -0.0633771852956996 )
( 13.208692960104012 2.018341350184348 -0.0755005879387954 )
( 12.789199238656012 2.1592425903625903 -0.0871532965839898 )
( 12.3559898822268 2.33385000435752 -0.0959176296235178 )
( 11.9437534480119 2.516926423136 -0.1022075866715191 )
( 11.54501364119712 2.698469481955763 -0.1064248484191907 )
( 11.151729898588435 2.8707501062102456 -0.1083574354336903 )
( 10.74957815137584 3.034183401953883 -0.108549210766889 )
( 10.359596906361228 3.2340037706301894 -0.1080830646004787 )
( 9.99270624160251 3.505921338042401 -0.1091697041453863 )
( 9.56940249139588 3.8396457339309418 -0.1094552479031439 )
( 8.876158847320166 4.049252433765455 -0.1035629557628589 )
( 7.309445411783131 3.667420897740957 -0.0837206480729851 )
( 15.309477036782974 1.2691633443322397 0.0417554255866991 )
( 15.040101005901064 1.36059723031039 0.0188915196262361 )
( 14.720291715606558 1.481177983186606 -0.0060099941148365 )
( 14.447730379733704 1.558577993158989 -0.0235345042175637 )
( 14.144538046609329 1.6457484743392776 -0.0396070818446409 )
( 13.819029439090109 1.7403029586555667 -0.0557477674398778 )
( 13.486400256289262 1.8355384262977403 -0.0685024596073891 )
( 13.115354789002913 1.9415718414748009 -0.0800489397602185 )
( 12.684059349956414 2.079661552257729 -0.0917327866217541 )
( 12.24258856895024 2.251191681672491 -0.0997366286221727 )
( 11.812768836383798 2.430874538821145 -0.1054270174111635 )
( 11.389392594860908 2.6020681258597453 -0.1095540856279855 )
( 10.976065302552902 2.7665077016755664 -0.1118150373771671 )
( 10.561813029453392 2.9400741667498504 -0.1130160810360251 )
( 10.163501686725876 3.1659213682187457 -0.1121766165728818 )
( 9.76944705728467 3.471437564991414 -0.1117486094217668 )
( 9.278605212209245 3.79391752372212 -0.1085729359755868 )
( 8.287043195877269 3.825727720310856 -0.095863819551414 )
( 6.591470325704152 3.3378031947023725 -0.0766123272252105 )
( 15.270692215808602 1.204854787258691 0.0348807476222633 )
( 15.000311332805534 1.2964568496346345 0.0128194552654521 )
( 14.670816039548978 1.4156328294280638 -0.0115943236630637 )
( 14.389779194547696 1.4871701215994892 -0.0288930712073732 )
( 14.079178316536614 1.569571565390318 -0.0450895151297149 )
( 13.74960366972176 1.663014339323675 -0.0606351293190445 )
( 13.409955115989902 1.7467200485658885 -0.0734958089209964 )
( 13.026753317740264 1.8503739762784783 -0.0849754656553499 )
( 12.59583398228673 1.9979376080049656 -0.0953996342514804 )
( 12.14733923054782 2.166332737776325 -0.1031039699173384 )
( 11.695056042809188 2.346495628647247 -0.1095202170568156 )
( 11.2463750865539 2.509413455641558 -0.1132110637699378 )
( 10.814639593995276 2.667781709664993 -0.1159408284385468 )
( 10.378203307948498 2.853377577023703 -0.1175791653659715 )
( 9.967345301672752 3.0959908620160856 -0.1158510661675938 )
( 9.522021252220645 3.4187883660238456 -0.1151827768344817 )
( 8.940033573190759 3.703082265377255 -0.1105236025803432 )
( 7.773212667508409 3.597649489499977 -0.0927548083307885 )
( 5.911877691882206 2.9934302327844304 -0.0708665338561591 )
( 15.23646330288588 1.149419849699305 0.0289148749581795 )
( 14.962946879153682 1.235995548952815 0.0074177950563794 )
( 14.626899365466542 1.348040183762391 -0.0167235550763948 )
( 14.338812939096108 1.4179517691184562 -0.0340917557829375 )
( 14.021401539781325 1.4929144535496022 -0.0503760850518345 )
( 13.688744592451974 1.5768942261672785 -0.0650355718299576 )
( 13.33497301613535 1.6549037667991815 -0.0782172061792931 )
( 12.94310574470411 1.7652402667674445 -0.0893217135170766 )