/*--------------------------------*- C++ -*----------------------------------*\
| =========                 |                                                 |
| \\      /  F ield         | OpenFOAM: The Open Source CFD Toolbox           |
|  \\    /   O peration     | Version:  2112                                  |
|   \\  /    A nd           | Website:  www.openfoam.com                      |
|    \\/     M anipulation  |                                                 |
\*---------------------------------------------------------------------------*/
FoamFile
{
    version     2.0;
    format      ascii;
    arch        "LSB;label=32;scalar=64";
    class       volScalarField;
    location    "0.0038";
    object      k_LES;
}
// * * * * * * * * * * * * * * * * * * * * * * * * * * * * * * * * * * * * * // 
 
dimensions      [0 2 -2 0 0 0 0];
 
internalField   nonuniform List<scalar> 
13597
(
0.212123344408419
0.2156469385925033
0.2246897381999898
0.2394064016314125
0.2529526267607271
0.263787077175724
0.2740633993012125
0.2833505043397664
0.2917612085983463
0.2990585259664377
0.3058296402821466
0.3120904107707148
0.3169361720501428
0.3209094671541021
0.3243215519709179
0.3273247651404857
0.3303392763907361
0.3329807012006438
0.3358148126660585
0.2124346813257335
0.2182674899697437
0.2329997721981841
0.2546335564389713
0.2707860085156909
0.284139906879358
0.2964549686545277
0.307550199527801
0.3172755079204195
0.3252799286755283
0.3321659436305577
0.3376837951642452
0.3417889230777328
0.3447479719591379
0.3467645313053493
0.3480600598255988
0.3485444801955922
0.3485132227761229
0.3484968623682857
0.2165125020315993
0.225879621698609
0.2463609794695676
0.2721369475449132
0.2894556196018782
0.3036367308598853
0.3153924419868442
0.3250165841740762
0.3326448793388603
0.3378655027074112
0.340535657826515
0.3420831761592202
0.3427092706444836
0.3417025020184749
0.3401005450017011
0.3380981630643422
0.3352141520194312
0.3317579702109278
0.3280384777400724
0.2233780378913504
0.2364955204869167
0.2596828171300516
0.2853990575242685
0.3018944845129551
0.3137427847858461
0.3220443328948414
0.3277017122260318
0.3307069661814831
0.3317120002646065
0.3292106248355285
0.325631840281442
0.3216090625378707
0.3169054600669789
0.3127662523284982
0.308891951724588
0.3047636811440549
0.3010248974345407
0.297533563013807
0.2317345168205224
0.2468381629896327
0.2711396465833655
0.2947226931365057
0.3079571819804002
0.3162170511215844
0.3202136243892123
0.3211001845882714
0.3190305568882873
0.3149149237599395
0.3095112389766395
0.3039130423118985
0.2984285638368659
0.2935065745817221
0.2896660206195274
0.2868415140158347
0.2844171070870176
0.2831411194307629
0.2829392415844013
0.2399887911933161
0.2560261980431129
0.2803750277301696
0.3007293954373923
0.3096169546337787
0.3142675082673219
0.3147233368833877
0.311542124374561
0.3063574385080932
0.2997647371573541
0.2936091028125832
0.2880122991370873
0.2834868052817909
0.2805106992252267
0.2793327883295664
0.2798677068901559
0.2815208292997977
0.2844898314131124
0.2894303978389803
0.2480559207501162
0.2650904392006535
0.2878868606019812
0.3038067394334238
0.3095637976677576
0.3107703764294066
0.3075661006379143
0.3019124409860462
0.2959600164993622
0.2896070565890786
0.2833586153797227
0.2791348113484778
0.2778292159070866
0.2787790707288754
0.2819637923795007
0.287154863157784
0.2938662153833938
0.3023629148106303
0.3130428284241276
0.2565924317656773
0.2734871503460382
0.2943299367139186
0.3065052808023711
0.3089867415432339
0.3071141713911253
0.3018070739658881
0.295093785287758
0.2886951863217408
0.2827136727823916
0.2781224097746491
0.2775509320545647
0.2809064572254497
0.2869527751232804
0.2950842469853444
0.3050588321209067
0.3168045812715429
0.3306975051030972
0.3464276145131595
0.2643300015962171
0.2806935879039322
0.2994084502201526
0.3083168602382448
0.3083525748713884
0.3043058685095158
0.2971597665718737
0.2899895414058706
0.2838355216361279
0.2795294220130766
0.2786147765299178
0.282609265264678
0.2911569183928352
0.3023595453944493
0.3151607976208633
0.3294463899896481
0.3453320104247628
0.3633260805417181
0.3831941210225264
0.2726651113002168
0.2886606970895987
0.3036613174692721
0.3091983219188012
0.3072101161679852
0.3010861975661601
0.292593839470147
0.285272771974341
0.2804448787115577
0.279431931742567
0.2835201411593233
0.2923544575748675
0.3056604513771733
0.321356392119819
0.3380824138537783
0.3561435589304014
0.376006129604422
0.3978095467238345
0.4216318410755852
0.2810824840317543
0.2949693544085188
0.3069749983279
0.3094074171581156
0.3041939989535087
0.2963888661172926
0.2885920818071097
0.2822540570286507
0.2794807968242227
0.2819175644643109
0.2905337616527729
0.3047824633101118
0.3222190804085299
0.3417310332479912
0.3626511203038686
0.384914210055505
0.4090085630052847
0.4345196485873436
0.4625240593726094
0.2881564749384361
0.299721590504452
0.3087294007584606
0.3077082005283165
0.3002896857872101
0.2917379075331878
0.2847402646413526
0.2802950887250619
0.2805050462876111
0.2867653705298611
0.2996208873404277
0.3185337367674937
0.3402304631473787
0.3643003170439265
0.3901124559212202
0.4162629272228187
0.4436611395600643
0.4736180837940515
0.5067692119158028
0.2944504684332295
0.3037607389244991
0.3088326682986274
0.3047919014227884
0.2962011347461991
0.2873500448842706
0.2811492236265078
0.2793405333262651
0.2833493080789772
0.293546461862293
0.3111069232249299
0.334193967610907
0.3603706052643288
0.3894292358984826
0.4186995906098357
0.4481240648108418
0.4802791440700957
0.5159520229426918
0.5544028069736456
0.3002395667615561
0.3056216155768753
0.3065227439030868
0.300385636357386
0.2913151614745587
0.2831185669543725
0.2785263603686099
0.2793727659844923
0.2868688311839928
0.3012198132507632
0.3231896864217599
0.3510452391686759
0.3822177403040495
0.4147732577002372
0.4472526327165896
0.4819640183794711
0.5207399875193105
0.561978745768342
0.6058675385212934
0.3037411471590808
0.3044279764469089
0.3022573879782261
0.2944706283184555
0.2860509156826143
0.2795472556424742
0.2770905614427036
0.2806050312565546
0.2912828987322856
0.3098341824802092
0.3364566386156646
0.3693327393024144
0.4056284721106538
0.4414597953959652
0.4783305133259016
0.5192139008054916
0.5640823753928869
0.6122446492679221
0.6688572462263719
0.3039106023135219
0.3013987676319147
0.2974909318784676
0.2887998178181486
0.2810324622807873
0.2763720936365096
0.2765439518232227
0.2830156405344569
0.2971293985509515
0.3194150150278389
0.3513436383587951
0.3900222125085745
0.4296584529329884
0.4689953538432178
0.5114839076196811
0.5582897409390915
0.6103156665350217
0.6713967937131383
0.7525843652302185
0.3009360342694664
0.2967553659326268
0.2919171923101279
0.2834294304452234
0.2766070296432385
0.2736990850916169
0.2764976636546675
0.286042444100205
0.3035077600782402
0.3300376960582111
0.3656000040259658
0.408920719792786
0.4529463781048191
0.4970491846357211
0.545698070896512
0.5997735459364727
0.6629596045635856
0.7453191235618513
0.853216322001378
0.2962924296245324
0.2906410343503297
0.285336246465265
0.2779165953770768
0.2728063375006387
0.2720791022960293
0.277131789015114
0.2896527793252495
0.310809243652401
0.3412769971299291
0.3805743645151727
0.4275014911838178
0.4765591339578702
0.5271118552863697
0.5818897390696344
0.6442225730089463
0.7255505123605523
0.8347572074372204
0.9482851776654811
0.2910358480990674
0.2843813199189296
0.2789351053966416
0.272925534390794
0.2695934104433126
0.2710633373500583
0.2782633574399766
0.2934197136164041
0.3182636744054563
0.3525973944355009
0.3969943399606937
0.4473481912979981
0.5010195001912692
0.5586008399034098
0.6204368472859296
0.6959920424994048
0.8016467012755863
0.9360337975316112
1.0274109446814783
0.2845784255140542
0.2772021780931606
0.2729164759872156
0.2685051446276103
0.267099135219657
0.2705914429192935
0.2801618562034663
0.2979163287980372
0.3256023317065708
0.3636630325011857
0.4130887487109348
0.4681178751675934
0.5266370546789259
0.5895239762157263
0.6634281672882495
0.7569837977634406
0.8887133309052669
1.0382205598446843
1.0830376923101668
0.2771348344996085
0.2700746480070364
0.2671580202205897
0.2641771984764061
0.2647926342618296
0.2705470849826297
0.2825660249667137
0.3024803780939407
0.3332826531705722
0.3749707781311836
0.4289125009450007
0.4904817262274559
0.5538935641888232
0.6208261691026479
0.7079469566311495
0.8266464495996191
0.98439495853259
1.1315967956532127
1.0836638658632445
0.2695291040095082
0.2636333169047813
0.2621253523781641
0.2609047395295315
0.2632809519516675
0.2712205188128651
0.2854809634730597
0.3071379335272761
0.3419035132268379
0.3876812899547074
0.4445491878542392
0.5100201458089041
0.5785697836087879
0.6550569334455485
0.7551279577412747
0.9012991436758612
1.081366398872921
1.2091868630930869
1.0087943251239293
0.26216329167975
0.2577578527681656
0.2579196109474944
0.2584413428706062
0.2621870373406201
0.2719652351805406
0.288520705388308
0.3126833983766668
0.3507437774609663
0.4012297149199134
0.4612246536267824
0.5285861974344152
0.6014748131899099
0.689438204627944
0.8115576592531237
0.984031930126688
1.1760636497056502
1.2323848586573074
0.9207956253518396
0.2547562199732175
0.251983195268094
0.2542820565970969
0.2560770872093634
0.2612929661542115
0.272725666453482
0.2912178384999135
0.3179823258048843
0.3586040495983697
0.4120491224856338
0.4759649790519136
0.5491038485491644
0.6279949928135669
0.7270337733287
0.8731356095727594
1.0711427506325484
1.263430840297448
1.213009228746112
0.8396490367625572
0.2481528226406273
0.2469021895585767
0.2513002164252342
0.2543713209189287
0.2608983747580677
0.2739982332609704
0.2940911232131473
0.3229930008067248
0.3657204871070754
0.4214176558357914
0.4903006338659269
0.5688690666916446
0.6540409920590515
0.770734067396971
0.9358284381262352
1.1510866431523297
1.3255279560571191
1.1847807370261911
0.7489695949689837
0.2430361884112183
0.2428177181041125
0.2485439770566551
0.2532659915606293
0.2611833283165188
0.2753451834601845
0.2972329161850007
0.3282703301602491
0.3725944641030697
0.4319678269039848
0.50457765109479
0.5864629757438141
0.6798947421540488
0.8131451057584101
0.9972101443490172
1.2259342275489309
1.342187845133188
1.1238546288325342
0.6790491097596116
0.2379799150854421
0.2388496289509131
0.2459633986130168
0.2523613130178206
0.2617259285818847
0.2768464633142803
0.3006248367904139
0.334092357392929
0.3803197441934198
0.4427714990892044
0.5178384439189468
0.6025902706611849
0.705666943958791
0.8519990047470718
1.0584791687808488
1.2926920379617737
1.3451922183622644
1.0566643132860765
0.621739148860621
0.232874338606295
0.2353743835235665
0.2442744658368112
0.2519619853391251
0.2625359699566145
0.2789468647833603
0.304021435109328
0.3390767068520506
0.3875929906506586
0.4538440599347561
0.5321843228852027
0.6183908922493021
0.7293338684216328
0.8907923617945239
1.1239041231164617
1.3560506263366645
1.3645700414154456
1.011409301609124
0.5728298600869293
0.2282428222473477
0.2324899368039069
0.2428390102728338
0.2516405257370334
0.2634686555371091
0.280875349754512
0.3069550319024952
0.3432891953578965
0.3941692378453867
0.4635592686390672
0.5437822503404922
0.6350319175216388
0.7599499398112186
0.932951969713268
1.1817832076756336
1.4033042895585506
1.3637906016548027
0.969918329044493
0.5405911642649253
0.2242007942485029
0.2295348839067367
0.2414536399607758
0.2514955625093522
0.2644043457243311
0.2830312849289341
0.3097445696820747
0.3474957534484016
0.4010916989115872
0.471179737243183
0.5524109812354449
0.652282221370227
0.7876252182869844
0.9737669787366222
1.2308247814076552
1.398471379806848
1.3098009377877138
0.9286136195521336
0.5213907417084449
0.2207980485930033
0.2269108160474356
0.2404784545245415
0.2517086335890299
0.2652106877662283
0.2852879287149409
0.31297153748756
0.3524201903114958
0.4079048934156919
0.4786318074532471
0.562212163479733
0.6685178807969269
0.8064318275443029
1.0086864046731698
1.2745221070839037
1.386673771829365
1.2541944995039938
0.8916975847375697
0.5079885838645761
0.2177952471800968
0.2250179496581129
0.2400080386820338
0.252158516287416
0.2663763652030499
0.2872441131280927
0.3161277263128312
0.3574465957839376
0.4141824077914224
0.4863151762565925
0.5721735576250455
0.6820739686633722
0.8259281428870725
1.050514050635879
1.3161039287537273
1.4009083840737433
1.2384077288678732
0.860796904927724
0.4916347095680627
0.2152718647343974
0.2234579172700487
0.2393591165448509
0.2526067039259435
0.2679792556183549
0.2888267264981055
0.3181309284245648
0.3613178648351725
0.4198783751748545
0.49393085094262
0.5819218435802916
0.6955449308737598
0.8449155183499875
1.085960236963568
1.3555847063891056
1.4228445116426318
1.2367183734813467
0.8387647329036412
0.4733859823122369
0.2132722302330157
0.2223341495311681
0.2386945972029733
0.252786599995366
0.2693588310137826
0.290361416953681
0.3197388721256877
0.3644127684134342
0.4245917804694416
0.5014931088848138
0.5928005044815784
0.708924312277298
0.8618211835354083
1.1108784799374682
1.3892446664179208
1.4456115789872386
1.2378972536035744
0.8254385299760735
0.4623603558172243
0.2117946043293601
0.2214918650535363
0.2384378460298762
0.2526848341415118
0.2701817717622587
0.2920583114682401
0.3216580834179027
0.3667940233990079
0.4282731278618834
0.5074160971783169
0.6012941478765903
0.7198597328090153
0.8799286054539809
1.136729497348253
1.4123774774066815
1.4558734871883297
1.233418127098488
0.8135399728273542
0.4548716361624325
0.2103691837274779
0.2206840427469164
0.2383290907042817
0.252820413283876
0.2706366223393858
0.293404651203009
0.3232161733768732
0.3687447248493773
0.432184866538919
0.5119211057085749
0.6075594755141321
0.7297338617237834
0.8962750713652383
1.1551934470392653
1.4292758437157296
1.4646092625915088
1.2261773484504224
0.8003238379947706
0.4461829688102663
0.2087436369757317
0.2198771086829544
0.2383663304526834
0.253259192597738
0.2715074940448765
0.2953388503001536
0.3257699894056054
0.371373950606104
0.436205057629661
0.5166951786920158
0.6137177974704828
0.7394573836409686
0.90979877594559
1.1710354918990529
1.4432959482005128
1.4679431198757231
1.2246011207404424
0.7964477523388667
0.4394690385586484
0.2074159132462139
0.2190489484083931
0.2381527044990188
0.2536284085307583
0.2723865015566669
0.2969207594761008
0.3285007722521997
0.3741612673948193
0.4398213674038842
0.5207273003434573
0.6190021943345886
0.7479017220349796
0.926373726689788
1.1897355951041713
1.449190550567529
1.4666187672731503
1.2185497417854132
0.7931591479197229
0.4356631463391058
0.2063063978411491
0.2182600141479645
0.2376454521552654
0.2540053442825534
0.2733360826289872
0.2977752522939965
0.3299378541960713
0.3762161719766861
0.4430348150085487
0.524085470112331
0.6234095781631358
0.7545901303303186
0.943861306033058
1.2126019781722537
1.4521339115020484
1.4605143683063324
1.206643199111444
0.7847456251519601
0.4338507345355867
0.2050836025006464
0.2176178676275666
0.2377540918104344
0.2547724245039636
0.2746218592723579
0.2990450792999586
0.3313971569339577
0.377931013419702
0.4449279903603469
0.526030814704646
0.6263508596843907
0.7595706593465793
0.9534407423337588
1.229049831488395
1.4563646791601346
1.4506285517448794
1.1988972148322776
0.7798712460819208
0.4330533015559066
0.2038555836677271
0.2169561800268742
0.2380858054155162
0.2554662508992589
0.2756446872396212
0.3003978375045176
0.3326722891928842
0.3795430544914722
0.447093593505957
0.5292007552356139
0.6298731533487678
0.7657351085618611
0.9616745003231784
1.2374572568073672
1.455951044077792
1.4387616653413575
1.1884170051383247
0.7737542217098938
0.4325688247120379
0.2030325824480603
0.2166745373477328
0.2383979532066683
0.2559564362807746
0.2760745021133453
0.3013671969515227
0.3340570021239304
0.3814664894234552
0.4503124465103901
0.534371499914513
0.6346007454723687
0.7718925154385913
0.9693369616350974
1.2407726505416574
1.4544680541630923
1.4322924428957178
1.1767072887763452
0.7642935826303571
0.4303066125381363
0.2022997351705263
0.2166370658141003
0.2388335638652985
0.2564886077149348
0.2766377636142135
0.3022436667110137
0.335594067444992
0.382992786094934
0.4516350982161337
0.5371452238073624
0.6381097520548654
0.774689049762386
0.9695889662085262
1.2436943300650911
1.460728682153955
1.4300107499257495
1.1659508644297774
0.7554004966842431
0.4253842484724963
0.2015985446785361
0.2162868938733112
0.2387492285464755
0.2567426802939576
0.2774610737591085
0.3031656831815572
0.3364937826830746
0.3836843144840823
0.4530252818864187
0.5401991614847695
0.6416241693401666
0.7784390480619275
0.9720273035898248
1.248066642919896
1.4574087443652115
1.4175726685339822
1.1560661273030317
0.74984420254554
0.4227198168129299
0.2058615659111127
0.2044432549550572
0.2028123391124573
0.2029377230599132
0.2051519722229661
0.2074759498557401
0.2096018226617395
0.2110343872127968
0.2134624348530635
0.2159724801804169
0.2179722250704814
0.2204240220181622
0.2216549897290348
0.2221861112287059
0.2230072047189573
0.2230147354853905
0.2232326051410972
0.2237789992513623
0.2235777497463466
0.2228339443559013
0.2218607319268047
0.2176090788599146
0.216749355899453
0.2188787020290195
0.2214045928717271
0.2247567034197274
0.2278731440428203
0.2309091061731391
0.2342316895959621
0.2380965528206476
0.2428439004558855
0.2468267184919236
0.2498083840494137
0.2526008985480538
0.254836658502355
0.2571412816210556
0.2594038643947761
0.2599788214986478
0.2342902197684415
0.2320608267982987
0.2261477997393279
0.2257339289768483
0.2284167030900591
0.2325195493873696
0.237655904240377
0.2425760777021928
0.2481246194090253
0.2550388974278913
0.2623216606877501
0.2691126703662498
0.275710172002522
0.2811846941103471
0.2854449412103246
0.2893178120701057
0.2920359211278027
0.2935672109435978
0.2939954466739294
0.2406060422697869
0.236560843528666
0.2301989864035991
0.2312708426707019
0.2354526618994706
0.2418530827304211
0.2501716982553507
0.2586354624105962
0.2673950382678622
0.2764636648020752
0.28561635972658
0.2934308517726233
0.3009548175635539
0.3074235449095104
0.3113120210225542
0.3145422648728098
0.3170706912092128
0.318831050819684
0.3201217463794366
0.2417104534979262
0.2362353859750472
0.2325403915524145
0.2368194156730083
0.2436344095277454
0.2529078271572232
0.2645072203835495
0.275865075194779
0.2870275581419162
0.2979679386959142
0.3085715128912629
0.3177746111488614
0.3257178500236611
0.332450473753161
0.3368016474285151
0.3404324966403965
0.343335842950808
0.3453889300143203
0.3462172300131836
0.2400146974391772
0.234647643489766
0.2347602346331003
0.2431364055712329
0.2533480370396542
0.2659553863686141
0.2797283368831501
0.2935069166250031
0.3068955352687799
0.3191306878327529
0.3301385055606928
0.3400280892959868
0.3482628939718168
0.3541876030039277
0.3585156334241016
0.3617914404253817
0.3633442699388432
0.3639176930214992
0.3633455615695619
0.2388712689352694
0.2347190324230647
0.2376530644167834
0.2503502257043125
0.2643401344719766
0.2792305928434446
0.2947351110700214
0.3096208585608919
0.3241057887522602
0.3371459696257867
0.3482021422595285
0.3578476981460602
0.365217204925338
0.3700903932546718
0.3731512758614007
0.3749545803953431
0.3754473947878274
0.3751982003509538
0.3741343489239323
0.2381746416925301
0.2354864829915012
0.2428157046098676
0.2585894116165101
0.274277393414419
0.2906433024626929
0.3077474144001395
0.3226717779106841
0.337254438576435
0.3506978937670468
0.3617125467296939
0.370791713080591
0.3766090181378617
0.3802514913582774
0.3823211550722519
0.3836069000747094
0.3841576283601798
0.3845365242175212
0.3848506132586738
0.2386376005464841
0.2376457245443119
0.2484693571652301
0.26626586670384
0.2826721711691677
0.2997485728781833
0.317410896465403
0.3339277861026288
0.3483974425489071
0.3606921183962984
0.3710231125746162
0.3790310753454045
0.383986772798618
0.3870509096654405
0.3893747258812021
0.3915119420996837
0.393764398961611
0.3965466979590271
0.400014735198203
0.2387487750825419
0.2399929663107904
0.2533258514531799
0.2720391582525056
0.2897158193516699
0.3075958432448153
0.3253079585353365
0.3418912438971208
0.3557679756370317
0.367894575316198
0.3772533002091587
0.3842219758584942
0.3896508368710374
0.3938945688454625
0.3978068900971817
0.4019554148383291
0.4074536780791897
0.4141890101571864
0.4220085969551742
0.2382925066622512
0.2420778434677118
0.2577163917290377
0.2770718741201103
0.2955550863423403
0.3141333433608064
0.331345835436983
0.3468481479794897
0.3604364397844346
0.3723344877797793
0.3812993420659936
0.3889333789834153
0.395802427170545
0.4021819122656249
0.4091754637339235
0.4167983549731434
0.4261784582610069
0.4372834135149471
0.4500673482884608
0.2390043590251293
0.2442965022826966
0.2613641138453486
0.2806553349714793
0.2992859433968977
0.318270188944601
0.3347307686046412
0.3501826042302301
0.3640209378679775
0.3754591571595737
0.385727799503946
0.3950425834205466
0.4036381813460875
0.4128996840721205
0.4237335531122795
0.4355299039059375
0.4492870458609141
0.4655545594718252
0.4843971222808256
0.2392912297598484
0.2454174554243474
0.2638345979164986
0.2831696182927877
0.3020857537965979
0.3209074757250527
0.3370591896512683
0.3520980883459825
0.3660795303415476
0.3785093887182371
0.3906959986803071
0.4025724077443784
0.4140789505062306
0.4265101008637392
0.4412700710877117
0.4579637900551724
0.4772176970436939
0.5003066354708162
0.5271195279506379
0.2389950815181033
0.245596909806814
0.2649577879163987
0.2852900200999636
0.3046699839950302
0.3224826996971268
0.3384122913787397
0.3535532281584892
0.3680608381935655
0.3820520110393668
0.3963179456581641
0.4107958050090841
0.4263111823955394
0.4425982694812691
0.4621027811625442
0.4853981308178371
0.5112307561925596
0.5414605638166735
0.5771645031080679
0.2386560334459246
0.2455768585429729
0.265517549774415
0.2860941208736796
0.3052136290544172
0.3224808162290782
0.3389527135786854
0.3548581698223604
0.3706191390741265
0.3866018463900861
0.4028251052600675
0.4202388169132975
0.4402280560931114
0.461836016456162
0.4866497062568612
0.5167283378953905
0.5505388484080544
0.5895869326747
0.6410487683344351
0.2379057668346935
0.2456045656305561
0.2663030614049008
0.2859401442485426
0.3047522146717104
0.322248245280072
0.3397843410788077
0.3565402462626365
0.3727508317232447
0.3910013030123683
0.4100452820158263
0.4318040661634126
0.4563369127704503
0.4839777046170463
0.5150101991023287
0.5507458381287159
0.5938651671022056
0.6484647456867728
0.7243655690412861
0.2366975398789996
0.2449620873921859
0.2665289320819019
0.2855563085020694
0.3043743874875107
0.3221088073145972
0.3400442507927776
0.357825666884367
0.3756113122433094
0.3960087405312541
0.418407027784226
0.4443553404776723
0.4736375066240907
0.5075995413150404
0.5458623539531127
0.5894348506586747
0.6443500753020045
0.7214243957353724
0.8191543760512352
0.2345498415505676
0.2434203512948712
0.2660380592098557
0.2847912419079492
0.3032145188851294
0.321802951683297
0.3405000222591023
0.3590392815470739
0.3793255816313826
0.4020161116378903
0.4279246430508265
0.4588885720621317
0.4937353713221467
0.5339171429207115
0.5790245944640905
0.633455686265106
0.7067019849717441
0.8125337418628491
0.9143931704140004
0.2318234877665359
0.2416187534306393
0.2648607920718022
0.2833666324463433
0.3018353383089776
0.3209025017048464
0.3408407986378536
0.3608819753928901
0.3828079772491922
0.4079287491325379
0.4381466716316956
0.4742553150620741
0.5153067597315865
0.561857193078207
0.6148584244570787
0.6846455161797054
0.7823576932677498
0.9098888660123589
0.9826068235708708
0.2290879478227901
0.2395747034910875
0.263179210943981
0.2819577846690753
0.3010165572542018
0.3201744095420892
0.3404280038398223
0.362254516990228
0.3863631685434049
0.414219686785566
0.4493950131326323
0.4910964257048927
0.538357360798919
0.5921987292916331
0.6550557556389291
0.7418000412544912
0.8686015470380811
0.999545781578678
1.0189645472957678
0.2262752220014621
0.2373240141460977
0.2615782353413993
0.2810427390177192
0.3001647577085512
0.3193453630511771
0.3406048086820254
0.3640908383522688
0.3899161628629988
0.420706741082837
0.4611559848815034
0.5099503698726096
0.5629170303117212
0.6245240123667939
0.7007190810146942
0.8079950740658697
0.9584687143245848
1.0804289767754718
1.0163281900832943
0.2234213492044523
0.2351939652053158
0.2602988781439943
0.2798406762441734
0.2990105386637318
0.3185669209361697
0.3406979075519054
0.3657704271223769
0.3936599667730135
0.4278795978158058
0.4727467121331118
0.5273706571708666
0.587310684683737
0.6568078127987396
0.746532868231528
0.8827728125877887
1.0556316327470507
1.1599954315102974
0.9470645908217348
0.2211530845854966
0.2331112801171211
0.2583298757022076
0.2778302382276017
0.2974941604693241
0.317759168899257
0.3405444828413353
0.3668404076325572
0.3978904793605931
0.4363784427554179
0.4853537509171013
0.5458024435192725
0.6138385459523565
0.6925562019602541
0.8021588443499106
0.9669851224354435
1.149041139401071
1.1756576757238142
0.858508838526861
0.218952157361146
0.231076246298628
0.256306677543402
0.275942448973767
0.2964165476756188
0.3172252548039645
0.3406974513667174
0.3680754843883845
0.4018349015493135
0.4452583008159796
0.4987509627741294
0.5644390429986587
0.6399515260806181
0.7308147842507094
0.8640076502232606
1.0532685843813911
1.222770075978561
1.1425387304806784
0.785896752444033
0.21600086982973
0.2288696649504075
0.2550563129924648
0.2747696666852397
0.295225977343228
0.3164351166313418
0.3405668389619642
0.3695319653929339
0.4061104325821199
0.4540976341184173
0.5128752794172212
0.58347294742077
0.6661340915942339
0.7735758618867208
0.9272209416095082
1.127761670080586
1.2704742416626666
1.1203740984887436
0.7130815109211405
0.2130962718168526
0.226663015200324
0.2539920511951637
0.2738313784863072
0.2935368927879631
0.3157885756442187
0.3413018643664592
0.3713593776395634
0.410987563690058
0.4625536906029455
0.5257222974761002
0.6026262817784466
0.6905673422453211
0.813069696127444
0.9893250709971492
1.1933157872650708
1.27229026244771
1.0584393935185803
0.6461449896941825
0.2108329055452846
0.2246704002612884
0.2521310498983553
0.272202132087476
0.2921923485757255
0.3152655730899087
0.3419591552486276
0.3729913092049982
0.4148223763519694
0.4695037718700199
0.538219525650984
0.6217861458597643
0.7161668268702229
0.8492509413135104
1.0461424836081392
1.2558359757765034
1.2786367779801333
1.000298619749217
0.5903237140639873
0.208771343222379
0.2228005715328598
0.2500808096029298
0.2705595232456634
0.2912341584901693
0.3142980988799688
0.3412864010550103
0.3738966830210582
0.417858985559971
0.4760269458551984
0.5510279244500481
0.6388065095600377
0.7439766581213202
0.8922111542292123
1.108016147601939
1.322326816966103
1.3066790061418183
0.9716792130892616
0.5537305376103012
0.2068363569481032
0.2213884586908675
0.249014161632381
0.2693580798193699
0.2900333294825287
0.3132212388277166
0.3406086434776105
0.3754658480020981
0.4216883774107711
0.4835376447373734
0.5620053301004059
0.6536828106796427
0.7709997530481109
0.9336708454262554
1.1598473021514932
1.3572451418078098
1.3038557931907595
0.9399094468350424
0.5293350501984743
0.2049806975996282
0.2202349329018428
0.2482130211776211
0.2682971842512789
0.2885251380312664
0.3121218269090143
0.3406762527379869
0.377527127432916
0.424874514575395
0.4897550377326007
0.5723114021048109
0.6712245304051324
0.7991945624028641
0.9678891450465804
1.201549029020344
1.3564128326291394
1.2543769888100826
0.8928127386590072
0.5047618096659409
0.2033233600583155
0.2192624376144688
0.2468592196791404
0.2667311326744626
0.2870235913214214
0.3110343097090774
0.3407660940840493
0.3794906022953593
0.4280729011407153
0.4951906723062492
0.5813354321002815
0.6856864400388718
0.8180958824382506
0.9976279401047604
1.2475902692467458
1.3589240637654194
1.205600115530438
0.8481038080441994
0.4835540214613066
0.2019051411974715
0.2180340602189948
0.2453216344147533
0.2652218519316082
0.2860086482984656
0.3103127977383792
0.3407622918278468
0.3812768797458895
0.4326313500671814
0.5026287384259057
0.5905903784022262
0.6981804276029638
0.8347268704734349
1.0305479534892097
1.291006553225327
1.3776159535764387
1.1933767694673387
0.8195127773339907
0.4659214193849376
0.2009859099889741
0.2172925895004216
0.2446364557942
0.2641662016120751
0.2853133613520877
0.3101071728248581
0.3408008004237235
0.3818265371115019
0.4356634067819955
0.509443025550962
0.6007711430592366
0.7120372526680651
0.8552380765594855
1.0666603715195964
1.328480135632061
1.403352404762843
1.1963981212886008
0.8009564155009871
0.4582530534973355
0.2003917025537125
0.2167782108211078
0.2438551665300521
0.2631452680039186
0.2848410306445408
0.3100161839230801
0.3408868886976169
0.382313799015493
0.4379026043922318
0.5131354887181909
0.6061216373229493
0.7223640604143269
0.8709633931076388
1.096523780003029
1.3563886429754146
1.4178784918018812
1.2001954246260216
0.7877543371522494
0.4495505735787929
0.2001099124259252
0.2163531851622277
0.2429635442985022
0.262368632624743
0.2842548041898232
0.3099293969061078
0.3407820902585304
0.3826482157222659
0.4414231948873764
0.5173842425391809
0.6108467759719237
0.7318828479562574
0.8825332274507014
1.116771578532737
1.3780687613676688
1.4327564055030897
1.2037198676907075
0.7753209079836402
0.4381311567711035
0.2001447605403594
0.2162568783414237
0.2425392554617466
0.2618442338126812
0.2831087518434343
0.3090274148954592
0.3404055607715463
0.3835003805397218
0.444685749150678
0.5217267682755491
0.6181225049473661
0.7409772711904348
0.8917816618546122
1.1362995756392784
1.405825300601249
1.4496818154704905
1.200058001215775
0.7674826715861195
0.4339069185485659
0.1999778138783891
0.215948966538769
0.2420589635609271
0.2613473119262308
0.2818013139901226
0.3077955769426778
0.3399921708755367
0.3846803488062424
0.447223746023788
0.52483376494341
0.6222394330881444
0.74765115502823
0.9042126122429852
1.1561755681826156
1.4271543829171591
1.459430896025434
1.1973218031406363
0.7660029574320758
0.4340974555668911
0.2000273736448565
0.2158898485338288
0.2412425305391794