/*--------------------------------*- C++ -*----------------------------------*\
| =========                 |                                                 |
| \\      /  F ield         | OpenFOAM: The Open Source CFD Toolbox           |
|  \\    /   O peration     | Version:  2112                                  |
|   \\  /    A nd           | Website:  www.openfoam.com                      |
|    \\/     M anipulation  |                                                 |
\*---------------------------------------------------------------------------*/
FoamFile
{
    version     2.0;
    format      ascii;
    arch        "LSB;label=32;scalar=64";
    class       volSymmTensorField;
    location    "0.0038";
    object      tauij_LES;
}
// * * * * * * * * * * * * * * * * * * * * * * * * * * * * * * * * * * * * * // 
 
dimensions      [0 2 -2 0 0 0 0];
 
internalField   nonuniform List<symmTensor> 
13597
(
( 0.1919504606832533 0.0464323892505571 -0.0118470918682594 0.0931398440478627 -0.0395870509064711 0.1391563840857219 )
( 0.1935863116104155 0.0499440338661306 -0.0113117512783521 0.0934222202821572 -0.0370392800447278 0.144285345292434 )
( 0.1974457804269435 0.0567488214226703 -0.0105156605754039 0.0945348740414273 -0.031974918357195 0.1573988219316086 )
( 0.2032626625388254 0.066200087526602 -0.0084922054294952 0.0975869573159206 -0.0249667858036731 0.177963183408079 )
( 0.2091494497535276 0.0741081536849343 -0.0059831490191465 0.1013380431011593 -0.0184195093419503 0.195417760666767 )
( 0.215280463196433 0.0799393384373687 -0.0036954960455041 0.1051672776444044 -0.0129233026994978 0.2071264135106104 )
( 0.221696735235906 0.0857754131736936 -0.0018039406391347 0.1093717437223368 -0.0081931544708175 0.2170583196441822 )
( 0.2284189523839251 0.0912363038039825 -8.352660761776147e-05 0.113924636612407 -0.00397968806432 0.2243574196832005 )
( 0.2357495098421956 0.0959992661452339 0.0018511064827774 0.1182583417410147 -0.0002632901431807 0.2295145656134822 )
( 0.243383342093709 0.1003713137038353 0.0032800211824222 0.1224132597086311 0.0027090466405696 0.2323204501305352 )
( 0.2520242693970971 0.1041926627277767 0.0041604913516123 0.1270319307330435 0.0055523920342769 0.2326030804341526 )
( 0.2614481755652238 0.1076838793987538 0.0052698455775275 0.1315233705514546 0.0081312992346854 0.2312092754247511 )
( 0.2705803568763809 0.1109470377688184 0.0064166839379193 0.1351664314206443 0.0098038730763081 0.2281255558032604 )
( 0.2795439084010891 0.1135284803360116 0.0067967989926504 0.1390017570084547 0.0115896148746677 0.2232732688986603 )
( 0.2889238659793969 0.1159655518473661 0.0060267534085374 0.1434572096157122 0.0133026005179199 0.2162620283467267 )
( 0.2975762898925739 0.1183842032034622 0.0054496672337673 0.1473603327510242 0.0149545457233081 0.2097129076373729 )
( 0.305439247970167 0.1198732402247368 0.005941914093418 0.1507983790359706 0.0168007664674678 0.2044409257753344 )
( 0.3129461934593729 0.1209724226298661 0.0059600869943938 0.1543305261622516 0.0188307037885288 0.1986846827796631 )
( 0.3203644264038165 0.1228430667241398 0.0058297990914186 0.1582354612019424 0.0208900724146242 0.1930297377263579 )
( 0.1921357310355914 0.0557524488050057 -0.0065573862084062 0.1007979151992647 -0.0298274180619628 0.1319357164166107 )
( 0.1945538727456482 0.0625516441238265 -0.0061794265233287 0.1041811383513578 -0.0259964180487924 0.1377999688424813 )
( 0.201726014694107 0.074542574691118 -0.0052961650338567 0.1099855637330131 -0.0194781817876851 0.1542879659692478 )
( 0.2129984622023309 0.0886526877475751 -0.0031621473084819 0.1187112108183007 -0.0116567321522836 0.177557439857311 )
( 0.2227691007780687 0.0993138961843043 -0.0021657341326688 0.1259256859003683 -0.0061622987098953 0.1928772303529446 )
( 0.2318265158049717 0.1078305315106642 -0.0019073931355298 0.1320641967975448 -0.0022253259077479 0.2043891011561994 )
( 0.2413085608582613 0.1155434948556279 -0.0017348853752137 0.1382372517695523 0.0004206195779783 0.2133641246812418 )
( 0.2511013571742008 0.1225858660919771 -0.0022879194372804 0.1444500199303449 0.0019530705356784 0.2195490219510561 )
( 0.2607206581730362 0.1282486967866952 -0.0027197911665115 0.1495747274326138 0.0031017451767632 0.2242556302351888 )
( 0.2700307751883251 0.1328265973521736 -0.0027492067441077 0.154134330964131 0.0034002723139128 0.2263947511986004 )
( 0.2800880810120836 0.1364517238008663 -0.0033334952113216 0.15845769560423 0.0031264725185282 0.2257861106448015 )
( 0.2902488514770652 0.1389222525171593 -0.0038332499193013 0.1619662034264196 0.0028693808263714 0.2231525354250055 )
( 0.2992969183089442 0.1404167598859293 -0.0039993661902603 0.1650557614728594 0.002147084749199 0.2192251663736618 )
( 0.3074507966877991 0.14116777526244 -0.0030973417501098 0.1678324823398014 0.0019355772202829 0.2142126648906752 )
( 0.3146419252217828 0.1410193214862687 -0.0013762103271205 0.1701247810617144 0.0024757080667546 0.2087623563272012 )
( 0.320253413211736 0.1403179699727355 -6.961084050872908e-05 0.1719172321054763 0.0026645393772688 0.203949474333985 )
( 0.3239718947457209 0.138990514810927 0.0017943983100566 0.1730231889968567 0.0029514244402822 0.2000938766486067 )
( 0.3265879752214535 0.1368819790261598 0.004064442152244 0.174218812360987 0.0036182714340542 0.196219657969805 )
( 0.328534489092791 0.1348980491908795 0.0062299617378085 0.1754890378423589 0.0042990680575445 0.1929701978014213 )
( 0.1900904363343954 0.0686413892433055 -0.0036296093902752 0.1103138161266921 -0.0202680001432528 0.1326207516021108 )
( 0.1939390745335486 0.0783741870557954 -0.0036245994107027 0.1167931491844385 -0.0155661193416319 0.1410270196792309 )
( 0.2047510709753315 0.093796146766782 -0.0036000001907397 0.1271720673344349 -0.0088979987089304 0.1607988206293686 )
( 0.2192517416021053 0.1100663147065299 -0.0036360377230346 0.1394938920087781 -0.0018028602688839 0.185528261478943 )
( 0.2304274602548921 0.1213711615912463 -0.0053571640690855 0.1486660379744749 0.0019799046176825 0.1998177409743891 )
( 0.2408106376927341 0.1302889328567753 -0.0073281952857765 0.1560174199378119 0.0037522375364728 0.2104454040892245 )
( 0.2506275743311777 0.1371874542682972 -0.0089037345378883 0.1621190696390465 0.0041326882780936 0.218038240003464 )
( 0.2596223498902049 0.1422183028987362 -0.0104749243375362 0.1671257167682988 0.0037628231571328 0.2232851016896487 )
( 0.2683361493934862 0.1451776820248936 -0.0112069916881131 0.1705800875928159 0.0031112755735359 0.2263735216914185 )
( 0.2766347842138573 0.1468300009993593 -0.010300727711031 0.1728052605587714 0.0017897052170032 0.2262909606421937 )
( 0.2830384846335069 0.1470569386524868 -0.0085318260979224 0.1738483222042755 0.000567785655155 0.2241845088152477 )
( 0.2890406651598654 0.1454234223092761 -0.005945113639035 0.1737576821762903 -2.5646883984458375e-05 0.2213680049822846 )
( 0.2939983002846705 0.1422557797100032 -0.0025385595042593 0.1730598222783734 -0.0004765758713909 0.2183604187259231 )
( 0.2965539176108341 0.1382224631823504 0.0020096722259577 0.1717213865347919 -0.000687765977493 0.2151296998913236 )
( 0.2976785663892071 0.1338668186744464 0.00766484138717 0.1697877390916406 -0.0003587484992732 0.2127347845225542 )
( 0.2976453742926802 0.1294413605589824 0.0119030846977604 0.1677577414731752 -8.023386775469448e-05 0.2107932103628289 )
( 0.295940904350626 0.1250912854236 0.0156185072780897 0.1656602326501993 0.0001417968501305 0.2088271670380369 )
( 0.2930187681364607 0.1204520309005516 0.0197140179471254 0.1634644172406446 0.0007128892547835 0.20703275504475 )
( 0.2897486469856314 0.1156528976420127 0.0232181403135562 0.161123942121263 0.0010826759360756 0.2052043663732504 )
( 0.1874302857931788 0.0813640782702742 -0.0018065812773466 0.1211590410542457 -0.0121404497324483 0.1381667489352762 )
( 0.1928317769103682 0.0930752512183247 -0.0023265533114572 0.1306590613783707 -0.0071148178471395 0.1495002026850944 )
( 0.2054409420915839 0.1092502577938075 -0.0042860405367724 0.1440525603401721 -0.0017374653178903 0.1698721318283472 )
( 0.219821771570468 0.124411698074266 -0.0068658395264218 0.1578498258366271 0.0029653575058457 0.1931265176414418 )
( 0.229887292963014 0.133829239185979 -0.0091034518349128 0.1669586323407242 0.0051116257812085 0.206943043722172 )
( 0.2385446533185177 0.1400848731154493 -0.0103285075374147 0.1730058017129763 0.0054178982600924 0.215935114540198 )
( 0.2458803731635386 0.143825708532535 -0.0104159764925171 0.1771112376573358 0.005023846141798 0.2210970549688084 )
( 0.2521407446257553 0.1453349402815678 -0.0084955108903377 0.1792582143597824 0.0044070952976558 0.2240044654665257 )
( 0.2575105573225276 0.1447599985236686 -0.0048534241995682 0.179463116046648 0.0036754517422163 0.2244402589937907 )
( 0.2626699835108853 0.1425378946454784 0.0004385734379966 0.1780921584715915 0.0031392461884531 0.2226618585467359 )
( 0.2654144409410772 0.1385110359807099 0.0070470505475664 0.1741851905735943 0.0029148080126746 0.2188216181563855 )
( 0.2667624996058578 0.1330362343860734 0.0143988126152183 0.1695611267091526 0.0029815972752329 0.2149400542478736 )
( 0.2677710764883059 0.1273812976532234 0.0222947775191238 0.1645967166854688 0.0030123248571556 0.2108503319019666 )
( 0.2677539728156706 0.1214549989581937 0.0297249184009532 0.1590239783572231 0.003445025278827 0.2070329689610641 )
( 0.2672135550977569 0.1161566769486551 0.0362796368231149 0.1543097592470459 0.0040136992944429 0.2040091903121934 )
( 0.2663752101385308 0.1121694157769992 0.0416996334412959 0.1504709114087557 0.004172871784495 0.2009377819018894 )
( 0.2648477089438658 0.1087989305556606 0.0459354057226365 0.1469314374923434 0.0043993185191741 0.1977482158519007 )
( 0.2635305070551614 0.1059163247424135 0.0495377302839602 0.1437989793477364 0.0044379488067111 0.1947203084661835 )
( 0.262273779798061 0.1034467759496537 0.0528273028513187 0.140832261275145 0.0042072011823304 0.191961084954408 )
( 0.1848765390536675 0.0921018376990611 -0.0014197354192647 0.1318938592320105 -0.0059393699248581 0.1466986353553666 )
( 0.1911702425177031 0.1038190479001021 -0.0022430650088394 0.1432643386272696 -0.0020219914771603 0.1592417448342926 )
( 0.2035915170854983 0.1187873749940775 -0.004565597428417 0.1583133051169677 0.002174714923119 0.1803744709642651 )
( 0.2160649414064886 0.1308103791099351 -0.0063731281814544 0.1719442542593335 0.0052557873828372 0.2014361906071893 )
( 0.2234825586002713 0.1365984272191213 -0.0057695062292348 0.1793979796277078 0.0065312136070857 0.2130338257328213 )
( 0.2297763848429344 0.1393279143835822 -0.0033377301518343 0.1833815494530796 0.0069162874662894 0.2192761679471544 )
( 0.235253107699978 0.1397142042270213 0.0016731787080395 0.1845768113503893 0.0074301727690556 0.2205973297280569 )
( 0.2392747700190783 0.1379293629670468 0.0084827903450796 0.1831748279730436 0.0080718849714088 0.2197507711844207 )
( 0.2427589659274281 0.1347556700711991 0.0160256705072491 0.1794771202533726 0.0082615448842409 0.2158250275957738 )
( 0.2463821804939115 0.1305323362333327 0.0242336782465077 0.1743555987209482 0.0084942865663442 0.209092068305019 )
( 0.249746941774529 0.1256273835326953 0.0333017658908754 0.1678853397859944 0.008713823592468 0.2013901963927559 )
( 0.2522918827267373 0.1205206475965433 0.0424249624253733 0.1608926980755909 0.0089829156010593 0.1946415038214688 )
( 0.2543588003222756 0.1159663527775113 0.0501932568263182 0.1539870828643877 0.0092513821751673 0.1885112444870684 )
( 0.2560848192428722 0.1124021956298159 0.0567571765717832 0.1479375743260559 0.0096251243928705 0.1829907555945161 )
( 0.2576424618728739 0.1100757338795634 0.0617217924598481 0.1434928425010332 0.0098268540742545 0.1781967368651477 )
( 0.2594419142887144 0.1091864430708323 0.065569088665419 0.1399494086599905 0.0095656030430207 0.1742917050829645 )
( 0.2608330407918098 0.1091653068375144 0.0679368178683395 0.1369856083658134 0.0091951507047505 0.1710155650164119 )
( 0.2628770473722056 0.110045608062381 0.0691898429387066 0.1348604606209104 0.0083871418483419 0.1685447308684098 )
( 0.2655044004608837 0.1120294175866474 0.0697927797607176 0.1332746052898594 0.0070819257489251 0.1670994774180594 )
( 0.1824361668055956 0.0993310056371887 -0.0006468425222416 0.1415498241882945 -0.0021926281948352 0.1559915913927418 )
( 0.1877532968745281 0.10955512405452 -0.0007506590527541 0.1539502822536279 0.0010990757330627 0.1703488169580696 )
( 0.1986481931817919 0.1222503252660588 -0.0008429992181954 0.1698188867536372 0.005164227561584 0.19228297552491 )
( 0.20923741552234 0.1308234199312342 0.0010865859752306 0.1819698595219101 0.0081300393608279 0.2102515158305344 )
( 0.214947218292818 0.1331572981679455 0.0056860555496042 0.1869903629637488 0.0097931443676357 0.2172963280109906 )
( 0.2207449319498246 0.1332202595858519 0.0118619808765084 0.1887164360532452 0.0110020842464176 0.219073648531574 )
( 0.226425900693529 0.1316880725000276 0.0198895910422714 0.1874199160205026 0.0120812129919558 0.2156008570527436 )
( 0.2309126230885977 0.1285011343066594 0.0283843948062072 0.1835224708648742 0.0132964361920122 0.2086491547956501 )
( 0.2358056391900382 0.1249364787099503 0.0367363866877048 0.1780651171872039 0.0142295119001045 0.198844120638944 )
( 0.2409231746757104 0.1215822956537247 0.0455056630944036 0.1713603770874772 0.0147703283336279 0.1872459225515203 )
( 0.246162982882981 0.1187584543475648 0.0541852839135106 0.164531392854834 0.0149878134144639 0.1765238298873511 )
( 0.2511935993445586 0.1164931377878815 0.0609326840606504 0.1576358593294968 0.0146855903151538 0.167195139600119 )
( 0.2556187808936643 0.1151032337777528 0.0658784076005251 0.1509409490240206 0.0141945877451633 0.1604138806458968 )
( 0.2595370943269643 0.115420697210292 0.0692878516350452 0.1463781668900694 0.0137218009416401 0.1551061372334195 )
( 0.2636783108226855 0.117297518214083 0.0707479474300913 0.1438769525480464 0.0126021746909754 0.1511103132884005 )
( 0.2682959152308555 0.1201668073386072 0.07100325724519 0.1420955614912477 0.0111475060350282 0.1493439370582085 )
( 0.2729711487651539 0.1239191943059767 0.0701096432373751 0.1411350395771544 0.0095771524165588 0.1489354702572869 )
( 0.2782805518305677 0.128777522106246 0.0681508038812869 0.1410531213376969 0.0076026025542647 0.1496459896579599 )
( 0.2846969357463856 0.1350291656798982 0.0653546420346601 0.141517409680769 0.0051124252053938 0.152646450250806 )
( 0.1780084542051792 0.1030524676380583 0.0015993597874411 0.1509702006758365 0.0007276902255378 0.1671331866192167 )
( 0.1826033188591841 0.1117934220051331 0.0038018097790944 0.1641986067972026 0.0048741289593186 0.1833789527449201 )
( 0.1927364515968028 0.1219320608679561 0.0073600506417164 0.1794676082816856 0.0094121820928253 0.2035696613254739 )
( 0.2022961322734387 0.1272709659835065 0.0133772916222335 0.1891678677382467 0.0124943277008803 0.2161494788551623 )
( 0.2091285742596639 0.1278228547961124 0.0205020797501706 0.1922164157937521 0.014410116080265 0.2177826052820993 )
( 0.2156642629959126 0.1267591336331786 0.0281944783824637 0.1922366226020607 0.0159002376363216 0.21363986726084 )
( 0.2214920270427227 0.1245990403772978 0.0358445129079199 0.1894918908371245 0.0168122547566636 0.2041482833959814 )
( 0.2277351446845537 0.1220287128235739 0.0435961270915941 0.1849832274161453 0.0179732955513784 0.1911065098713932 )
( 0.2351705271341315 0.1201844587107859 0.0510830355327425 0.1799823574484989 0.0190648118378905 0.1767671484160938 )
( 0.2421527766250567 0.1190721438428431 0.0575009099113896 0.174073343610118 0.0192934001060233 0.1629879929429823 )
( 0.2480891553790201 0.1188408008085372 0.0627561941718182 0.1675626366450336 0.0186675502541311 0.1510654387353917 )
( 0.2543410602316301 0.119912279788705 0.0659340239272347 0.1618784929545049 0.0172512712770387 0.1420500695108203 )
( 0.2610350917690114 0.1225916596711569 0.0675440234282418 0.1575020639273932 0.0154751339911228 0.1371212761177686 )
( 0.2678672787383124 0.1268235572813892 0.0674854107883002 0.1549803466526336 0.0135490684850343 0.1347105160668049 )
( 0.274824629461206 0.1323613542987536 0.065576179499776 0.154482904449032 0.0109532040256423 0.1346200508487632 )
( 0.2821667649542607 0.1390477100647686 0.0627646883490641 0.1553178077433986 0.0083018221212953 0.1368251536179087 )
( 0.2903754287956095 0.146588450137504 0.0594718083508602 0.1567059159732979 0.0055678006297784 0.1406510859978802 )
( 0.299699782280483 0.1555157507515407 0.0551279354940012 0.1587557279962674 0.002436341917519 0.1462703193445102 )
( 0.3105503953065365 0.1659059099229162 0.0498333261617873 0.1614227584267729 -0.0010731338891694 0.1541125031149458 )
( 0.1730915209427273 0.1047694006488648 0.0060208382607144 0.1596438457009223 0.0043274312521231 0.1804494968877051 )
( 0.1779659537961342 0.1120345618222711 0.0113485475822492 0.1728641036451346 0.0093563453840007 0.1961442432508076 )
( 0.1891099312765081 0.1198599908940669 0.018269813464556 0.1868725314477066 0.0144599748278685 0.2126774107036227 )
( 0.1989414290747005 0.1231192252900034 0.0261742068458273 0.1947102106824863 0.0174387247421398 0.2193589218475553 )
( 0.2065913837278038 0.123042234552851 0.0336632147142536 0.1964004115915726 0.0192003335623013 0.2149816877670918 )
( 0.2141842687580762 0.1221107212907333 0.0405921733608014 0.1958377855474638 0.0206127103174148 0.2042062884767104 )
( 0.2212253352679008 0.1207280833086042 0.0467517540524064 0.1932839319179438 0.021344793949179 0.1891048807459316 )
( 0.2278318539782707 0.1194288332407476 0.0519040861744774 0.1899283660703795 0.0218169916339573 0.1724273505268654 )
( 0.2352812827354392 0.1196258415708518 0.0567145784552034 0.1866298423245262 0.0217773246638854 0.1554792475835159 )
( 0.2427123677931192 0.1210811468821396 0.0601166910126938 0.1820884762012419 0.0208566677727364 0.1406265015704219 )
( 0.2496538919260659 0.1239410430196189 0.0618251850825184 0.1768634359294912 0.0188448947973866 0.129727491693741 )
( 0.2581174568947653 0.1287657550709202 0.062175403372272 0.1726647535594918 0.0160754071837807 0.1243196536548722 )
( 0.2675937187962038 0.1353410657000351 0.060848927792866 0.1711714989254636 0.0129799879737028 0.1230476967292317 )
( 0.2772302780427931 0.1434676526604175 0.0577560248394815 0.1718967775001804 0.0096117616836303 0.1247784947035871 )
( 0.2871105570340008 0.1526913634765426 0.0537213242284998 0.1737243383645027 0.005998231798247 0.1293335985721854 )
( 0.297651209603443 0.1631356019586245 0.0490941452577052 0.1770348901224261 0.0024433677867162 0.1354315645159444 )
( 0.3094359637320726 0.1745989651036047 0.0439677590577372 0.1809357944025839 -0.0012609920422622 0.1432374044084292 )
( 0.3227412036210456 0.1875019079289221 0.0381179452526152 0.1852800046858591 -0.0052758358971017 0.1533738018992898 )
( 0.3376940756595253 0.2015546835282944 0.0314931905845697 0.1900591043745532 -0.0095869813488332 0.1651020489922407 )
( 0.1682315744134586 0.1050116379943942 0.013298335035634 0.1666507344254122 0.009011035521737 0.1937776943535633 )
( 0.1737094439632953 0.1107294619359354 0.021148192501984 0.1795814388684042 0.0148736723758983 0.2080962929761652 )
( 0.1863314464606772 0.1169416175416187 0.0291902655493644 0.1926677890633625 0.019640870013292 0.2198176649162653 )
( 0.1969508746289552 0.1194672673964911 0.0361986102476537 0.1996141064083907 0.0219568017867974 0.2200687394391434 )
( 0.2055331531057434 0.1197073736971002 0.0427987002198999 0.2013939494328359 0.0235780298865407 0.2097780472041975 )
( 0.2129358439088627 0.119475739671044 0.0474808249814722 0.2018469985489083 0.0245581908792998 0.1938288945612607 )
( 0.2193769651126239 0.119213291156503 0.0511095137308051 0.2007506349209362 0.0243506803583468 0.1741919331101871 )
( 0.2265431058186268 0.1198537995518548 0.0540611951493076 0.1985579478125478 0.0235866236833498 0.1548780291805666 )
( 0.2336582375178015 0.1219883369232272 0.0560709476497592 0.1965403381064351 0.022160940964414 0.1374724676480188 )
( 0.2412277687003841 0.1259399985631691 0.0568400261482906 0.1944656619498102 0.0199061304925658 0.1233654133759586 )
( 0.2503607555335568 0.1323998652751527 0.0559748830886551 0.1916279273196905 0.016521440989719 0.1152408702065883 )
( 0.2615900734033223 0.1411150321758611 0.0541367226398137 0.1896180920540388 0.0124394524390028 0.114010365071995 )
( 0.2741599374271803 0.1519523899591665 0.0505682433310779 0.191193070188675 0.0079271670247306 0.1169608291698151 )
( 0.2865575268077358 0.1640340584147024 0.0455031151465059 0.1949154030512224 0.003392904266331 0.1232461609299405 )
( 0.2993622666311631 0.17675902036242 0.0403811090789862 0.1991654807379178 -0.000828258728678 0.1317938478726456 )
( 0.3128435832388935 0.1907806448486142 0.0346579686981974 0.204913578755191 -0.0051776065879833 0.1411356179852116 )
( 0.3271131685158843 0.2057504290035539 0.028251565695052 0.2117596526980941 -0.0097926991468263 0.1517911996355471 )
( 0.3435952715767116 0.2219924415843371 0.0214110524799251 0.218720965865518 -0.0145609899792267 0.1643359236412065 )
( 0.3623690848676393 0.2395087043950138 0.0138575378946893 0.2256494904740012 -0.0194567818452755 0.1783696667034123 )
( 0.1644827091332076 0.1049240853581556 0.0223068992937558 0.1735562666601339 0.0153026409723242 0.207291246807092 )
( 0.1718297225748931 0.1098051728079519 0.0310831967360434 0.1862237301382371 0.021074884153447 0.2192679414660671 )
( 0.1845068904337026 0.1147071673818864 0.0380040568046544 0.1981991665705774 0.0243288743767711 0.2246165779342639 )
( 0.1950381223921648 0.1171113070345654 0.0434166056269576 0.2050103898223136 0.0257798765770716 0.2183481316231238 )
( 0.2036166225652538 0.1180621674458208 0.0473124821174515 0.2084450503822827 0.0266470195456859 0.2023585593884339 )
( 0.20977431114369 0.11853166263329 0.0495278781205109 0.2106226686407125 0.026575287661248 0.1817754153479175 )
( 0.2147936956195007 0.1193460312271216 0.0510748176984225 0.2110933839152168 0.0253164279842384 0.1593005994055765 )
( 0.2214408901164134 0.1219322662309892 0.0520488686853123 0.2106194185676092 0.0231339735097858 0.1384852352646593 )
( 0.2285767170620926 0.1263033549354244 0.0517763815669851 0.2101065467350291 0.0202448705325614 0.1222064936259937 )
( 0.2377413671993581 0.1333352697044144 0.0505681250834081 0.2099268331414368 0.0165966488052487 0.1111956631443389 )
( 0.250266123311216 0.1432850382909268 0.0481849428485468 0.209799870469827 0.0121708539226732 0.1069742885376035 )
( 0.264050187595891 0.1556111786100891 0.0445332136753139 0.2111307825991696 0.007110178587973 0.1095279449546742 )
( 0.2789463989186478 0.1702104288227795 0.0396149423806257 0.2155300742842573 0.0016262324787187 0.1168444295514414 )
( 0.2940942762610385 0.1858110217960177 0.0338473610078117 0.2216916802118684 -0.0037370633954313 0.126926827766731 )
( 0.3091153043864226 0.2021972913448537 0.0276991370835855 0.2294031973322154 -0.0088000320969192 0.1376463259889184 )
( 0.3247750974681647 0.2197797966365942 0.0209614997466553 0.2385754244313756 -0.0139293832797066 0.148936595961262 )
( 0.3420350648328268 0.2384391928969043 0.0138225280379658 0.2486897519309054 -0.0191834785321646 0.1612874424451116 )
( 0.3623624488587713 0.2582324093770088 0.0063905327441825 0.2584614210000451 -0.0244693811378258 0.1747952235888525 )
( 0.3863531588366494 0.2795278757670174 -0.0015641587069133 0.2674394554578487 -0.0294359513854503 0.1894710678566725 )
( 0.1627666339742475 0.1052869386703904 0.0317688106999805 0.1798378966066423 0.0217869946864403 0.2195604374826188 )
( 0.170929277504954 0.1090961625129147 0.0391858247813936 0.1919309643589266 0.0265775803837209 0.2270784669531567 )
( 0.182882099365665 0.1132393405015949 0.0441689399695266 0.2040614788689747 0.0284490146572891 0.2270064184211599 )
( 0.1920434186222344 0.1158475143712365 0.0471113185272034 0.2116036976035256 0.0285697512872569 0.2151677180904712 )
( 0.1983294104338719 0.1170863318594518 0.0478299139072717 0.2165373077055011 0.0281725322053946 0.1935212797676443 )
( 0.2032300456654953 0.1182217705516957 0.0480158401599411 0.2203800903552829 0.0267003025774412 0.1691675962138069 )
( 0.2082846501546293 0.1205290374965156 0.0480810721677904 0.2232628885841772 0.0241202961570555 0.145636624875413 )
( 0.2142112605719302 0.1246131874457903 0.0473292421964889 0.2249897212753668 0.0206701835612845 0.1253071322100041 )
( 0.2223339461382373 0.1312012772021307 0.0457708154749446 0.2258418756238616 0.0168965713102212 0.1107857718863462 )
( 0.2333372744199264 0.1414224213739961 0.0433251043895433 0.2274353634606317 0.0123788958529374 0.1030624910480634 )
( 0.2477935244116837 0.1549569203509143 0.0399439213495259 0.2305532610656119 0.0070181098366601 0.1027207378282502 )
( 0.2646884801272255 0.1714414232023507 0.0351913879992327 0.2357646725035105 0.0007952862337075 0.1091117739894876 )
( 0.2816865096683547 0.1894820215908406 0.0295127688261187 0.243381990100779 -0.005406660378093 0.1193696610479261 )
( 0.29918097595855 0.2084168621821355 0.0231793462014879 0.2525531141186292 -0.0113989483265867 0.1317279764188031 )
( 0.3168302878115825 0.2286699931707345 0.0159982961242252 0.2643018314645394 -0.0174443559243605 0.1441701213316153 )
( 0.3354429242542994 0.2501983253250556 0.0088023033525751 0.2776501250740147 -0.0231383092204661 0.1567353707826959 )
( 0.3569534948729256 0.2731205263697087 0.0014318930011565 0.291346738495141 -0.0285720296282317 0.1697168926425032 )
( 0.3818974709950848 0.2969071073562166 -0.0060472174390108 0.3039403124657505 -0.0336389586767129 0.1832015137138518 )
( 0.4117455980157268 0.3227351676193798 -0.0137090113533152 0.3155941249012324 -0.0379985911248219 0.1977083958282594 )
( 0.1609649859144655 0.1054091173833003 0.0400425582749825 0.1854638503071752 0.0274831997402132 0.2298841136552316 )
( 0.1688353931481364 0.1087619510826935 0.0455639720440968 0.1977264080785081 0.0313132816112024 0.2328813797822592 )
( 0.1799106182700623 0.1127377438775308 0.0473894660529545 0.2112244449094148 0.0314787325431887 0.2263237383374438 )
( 0.1864584200786641 0.1148900320401579 0.0471209686690237 0.2197547637042771 0.0300251625373993 0.2092032172736917 )
( 0.1903583855663561 0.1162489457645578 0.0459690475309097 0.2264655277107541 0.0281795566396633 0.1837554582973097 )
( 0.1943232680282304 0.1183133263246217 0.0446002282416907 0.2320856833750785 0.0253814299795454 0.1570668636630666 )
( 0.1997818012973375 0.1220362459480487 0.0432970589377273 0.2364894769449774 0.0214906243225827 0.1332092510403903 )
( 0.2063452610795614 0.1278675105988228 0.0415633064953676 0.2401376298181043 0.0172644462312792 0.1141072865524581 )
( 0.2160481578832563 0.1371048438995826 0.0394554420955081 0.2429393318369664 0.012807661137097 0.1020226028549994 )
( 0.2283459090062245 0.1503751354702125 0.036224985931714 0.2476889090023833 0.007537477493174 0.0974959230511145 )
( 0.2439176237254729 0.1671779609394889 0.0319487455418653 0.254518464271614 0.0013031513910193 0.1008056866837683 )
( 0.2631149116723997 0.1875016416733533 0.0265888997308272 0.2635965547954277 -0.0058819850848165 0.1103560070671598 )
( 0.2827477469538222 0.2095042539421323 0.0201470646062899 0.2749529746712695 -0.0128342942417152 0.1227602046696656 )
( 0.3037318401579864 0.2327501845109692 0.0132317690513658 0.2879148824175442 -0.0195582781064046 0.1369539115123221 )
( 0.3249484312682847 0.2572099066584694 0.0059033233011585 0.3042368299539205 -0.0261982322944224 0.151039650620235 )
( 0.3465559675580698 0.282303663272142 -0.0011160453280139 0.3219075227582949 -0.0320206043195501 0.1640623641292725 )
( 0.3717157490969724 0.3090326815557432 -0.0081315198959451 0.3391099543461398 -0.0370735247118085 0.1764965756770167 )
( 0.4024954541035554 0.3379314892153397 -0.0153974458718046 0.3550807701118746 -0.0415930050563296 0.1896599433726727 )
( 0.4399483114457533 0.3693519468952986 -0.0231586688587314 0.3697867568357545 -0.0456839546076204 0.2038033555500975 )
( 0.1583074497842058 0.1056584623393236 0.0469626832936474 0.1911132050928319 0.0333119210576996 0.2394802819894209 )
( 0.1650509221539234 0.1089115705169847 0.0496589839297178 0.204358811431688 0.0350623286370676 0.2381117442633867 )
( 0.1741605644556718 0.1125346475875168 0.0480782446903639 0.2190693061055597 0.0330778552941756 0.2244354660360231 )
( 0.1787911201499302 0.1144725583531786 0.045451951236195 0.2292526024422525 0.0303086042980553 0.2015400802533938 )
( 0.1818182186793216 0.1161769853490033 0.0428399845114395 0.237123971890167 0.0268503536082534 0.1734600789229093 )
( 0.1853580056253044 0.1190124872658068 0.0405778436969249 0.2436756161434753 0.0228198985364242 0.1456664679997613 )
( 0.1908154728662999 0.1240174301665348 0.0382446598251664 0.2493205425634697 0.0182321220458193 0.122162431823246 )
( 0.1978885601784093 0.1318616183630678 0.0357919657602105 0.2559229208870097 0.0135394030085672 0.1048695855871115 )
( 0.2081777645775905 0.1436338601231751 0.0332239636537606 0.2629541983710974 0.0081860153157386 0.0955666532092664 )
( 0.2224589808345805 0.1596991437278849 0.0296513487895174 0.270411792808744 0.002054101260799 0.0942221500812612 )
( 0.2408957119977927 0.1802176052818915 0.0249315019450976 0.2805208591590644 -0.0050768659366285 0.1007972752930026 )
( 0.2620007547043635 0.2042490364709159 0.0190386640494434 0.2935624779742838 -0.0127391222452501 0.1128247025431668 )
( 0.2841850955089394 0.2302033611837516 0.0123091687766841 0.3093055169742134 -0.0201098139546617 0.1272505980455049 )
( 0.3081638427893351 0.2580377552705682 0.0050587474399138 0.3278677053835051 -0.027520847819939 0.142826923624125 )
( 0.3318494176095812 0.2860662923191415 -0.0019554618776628 0.3488081482453183 -0.03412743656802 0.1567416153647718 )
( 0.3567968645084975 0.3147584983981546 -0.008706324272791 0.3702504744934988 -0.0397170985471656 0.1692007906196872 )
( 0.3868224725664888 0.3465255600161104 -0.0157884495900042 0.3921428005002478 -0.044805741881513 0.181593015073455 )
( 0.424149076871536 0.3816075349912076 -0.0231241384083704 0.413019685214578 -0.049320429343693 0.1947352837992695 )