/*--------------------------------*- C++ -*----------------------------------*\
| =========                 |                                                 |
| \\      /  F ield         | OpenFOAM: The Open Source CFD Toolbox           |
|  \\    /   O peration     | Version:  2112                                  |
|   \\  /    A nd           | Website:  www.openfoam.com                      |
|    \\/     M anipulation  |                                                 |
\*---------------------------------------------------------------------------*/
FoamFile
{
    version     2.0;
    format      ascii;
    arch        "LSB;label=32;scalar=64";
    class       volVectorField;
    location    "0.0038";
    object      U_LES;
}
// * * * * * * * * * * * * * * * * * * * * * * * * * * * * * * * * * * * * * // 
 
dimensions      [0 1 -1 0 0 0 0];
 
internalField   nonuniform List<vector> 
13597
(
( 17.111289389693777 1.6233662987687567 0.0593841718257744 )
( 17.106856539848913 1.6633689369336095 0.0612074067196922 )
( 17.108504877318094 1.7451213353647212 0.0637576369975402 )
( 17.116352306175738 1.849987335063824 0.0656637507614287 )
( 17.1244403928828 1.939937919994127 0.0655931258130709 )
( 17.127752860422813 2.01495434369634 0.063094359695027 )
( 17.134447751889983 2.0887883612706286 0.0598413611821364 )
( 17.144831648288704 2.1674264739429003 0.0557823945912201 )
( 17.15792100246414 2.246738495302414 0.0502440754876457 )
( 17.173026032246685 2.325899576023478 0.0443705374795503 )
( 17.18936495612579 2.414268877248475 0.0377441806207893 )
( 17.210695646645195 2.5028345229162605 0.0304082762470775 )
( 17.236062118045783 2.588977751975831 0.0233545435700905 )
( 17.2625554575349 2.680388293318153 0.0164342724309373 )
( 17.289622167862998 2.77454452880719 0.0105465102261144 )
( 17.32039205203759 2.867370293365039 0.0057709141111579 )
( 17.355524910652427 2.956950211131172 0.0013963024527518 )
( 17.392678151969523 3.046750646920601 -0.0016106804158599 )
( 17.431334066431514 3.1392369876226054 -0.0037029495677891 )
( 16.984594319480795 1.6430902508004697 0.0576692084464847 )
( 16.959244171782753 1.6906049089534074 0.0594112174611764 )
( 16.930712318616326 1.7931450991088012 0.0615809171206334 )
( 16.90176102196233 1.9111319237964504 0.0612563658236274 )
( 16.87639257742832 2.002869991398456 0.0587873094909616 )
( 16.851540356143452 2.089242736102832 0.0550970547008389 )
( 16.832182753519817 2.177100330428688 0.0500967797478328 )
( 16.814485994078268 2.2693555481821 0.0439650215568188 )
( 16.801501254163448 2.36449856110862 0.0369514128956392 )
( 16.790807627598287 2.460185586475314 0.0298225250612287 )
( 16.780708581846298 2.5669985490675824 0.0228603639951161 )
( 16.771565688643005 2.681244890106806 0.0161602083145108 )
( 16.764043235302566 2.796434000101005 0.0104994300206694 )
( 16.761561913666373 2.915439879009737 0.0054568190660968 )
( 16.76238717499595 3.0326222347594154 0.0020346732759338 )
( 16.767445054248228 3.144031730065739 0.0007486258118438 )
( 16.77463055634324 3.247101090229795 0.0005270451124037 )
( 16.782682800424695 3.352070697823644 0.0018253719959557 )
( 16.79666814767429 3.456156706686495 0.0043210427960343 )
( 16.852240423280126 1.648538836106481 0.0538078611323829 )
( 16.801069509460362 1.7002389231860924 0.0543951999291053 )
( 16.73915162520158 1.815153074472819 0.0540212520405426 )
( 16.67456225008017 1.9406957004783 0.0504619639684545 )
( 16.618711597498713 2.0349496306159005 0.0451016108128329 )
( 16.57107383840261 2.131538745838798 0.0385917739697053 )
( 16.52961485533012 2.233723415180881 0.0307915413663601 )
( 16.48585656341002 2.3382390886643845 0.0221016813552649 )
( 16.447785966827702 2.450119109115336 0.0131318851719855 )
( 16.41373338010841 2.57217490380894 0.0047607107710615 )
( 16.38048609637662 2.7014443156870374 -0.0026550249994155 )
( 16.349377736248165 2.8410181939532806 -0.0085429040111875 )
( 16.322084591842156 2.9855873221849984 -0.0123692951754078 )
( 16.30018309481002 3.1248754660253666 -0.0147161911826322 )
( 16.282536069419837 3.2526449314606847 -0.0153941859984576 )
( 16.269314185429337 3.3668958088883656 -0.0142970803664745 )
( 16.255351771042065 3.4696615245805846 -0.0124829070479279 )
( 16.241559151599677 3.572235394564091 -0.0099470854209406 )
( 16.236303651964707 3.6786223424784814 -0.0059721373169053 )
( 16.710403528757244 1.639803962054967 0.0464172470718498 )
( 16.632497668187476 1.6944145020126236 0.0442598498678314 )
( 16.54236886066129 1.8143214695131469 0.0411784346177416 )
( 16.449291131991135 1.944951011836836 0.0347340982585024 )
( 16.366549073234992 2.0467813737160547 0.025640039621795 )
( 16.295531787089285 2.151652189145323 0.0155250561575693 )
( 16.227320215514457 2.26717772221272 0.0043299866044881 )
( 16.15908502649299 2.38731236115929 -0.0070599091386446 )
( 16.101081236729375 2.51570723966468 -0.0172285168677478 )
( 16.047643186891804 2.6559969118259104 -0.0259665770745439 )
( 15.9930610487604 2.8065085302875605 -0.0328500254017709 )
( 15.946791845244045 2.9637163581663124 -0.0369866676997783 )
( 15.9058377255068 3.120479145815704 -0.0386193919181361 )
( 15.864377155133472 3.270747751155983 -0.0382075821818791 )
( 15.824586688085798 3.399628881018592 -0.0364793860679706 )
( 15.787647958121122 3.509765213710975 -0.0339629862173544 )
( 15.75162203812541 3.609502673108772 -0.0305351179201697 )
( 15.712658385241506 3.709708696592001 -0.0265125191490484 )
( 15.6770626008593 3.820730883471116 -0.021682530489275 )
( 16.565241416225188 1.619376922331956 0.0362365799867274 )
( 16.46681214691621 1.6791588480704405 0.0314701549305465 )
( 16.35082812919279 1.805651304892992 0.0250145632328401 )
( 16.23194843353877 1.938544844590113 0.0146457405435555 )
( 16.129250575245905 2.046799206932075 0.0014776942102641 )
( 16.036935034099187 2.160030818284518 -0.0117434213868971 )
( 15.944038196128908 2.2866647078682205 -0.0253192708832108 )
( 15.855976841569635 2.4197797761099697 -0.0377100529817619 )
( 15.777915675687922 2.557733992805764 -0.0469005200531721 )
( 15.701215267254184 2.707717977081186 -0.0535877412935903 )
( 15.622855343325448 2.872902726721731 -0.0577195269437655 )
( 15.550138362254131 3.041818907205108 -0.0587455385600817 )
( 15.480500625954216 3.2047314533567617 -0.0567600909883576 )
( 15.409194020973992 3.356172138704946 -0.0528407106784766 )
( 15.338215167149997 3.479556739097202 -0.048555819768568 )
( 15.26876660668126 3.589385208784798 -0.0439852050939806 )
( 15.202189450424193 3.693711511789302 -0.0383922213965131 )
( 15.135539124092835 3.797719694331561 -0.0319156289126345 )
( 15.068505862161256 3.914503413240707 -0.0245942955091455 )
( 16.42292703274864 1.5880671934783432 0.0237552648393709 )
( 16.30532286445064 1.6541538741404684 0.0161409951564583 )
( 16.16322127476592 1.7905585007210898 0.0049095792516028 )
( 16.02517640703144 1.9267232254073623 -0.009424699601679 )
( 15.907329577235494 2.04043059895867 -0.0247677319330931 )
( 15.797655490737707 2.161778137477352 -0.0392402230251873 )
( 15.688339920153457 2.293125310694383 -0.0521517837202714 )
( 15.579589635248734 2.431292621820256 -0.0625930675462713 )
( 15.470432912882211 2.575613495281881 -0.0688957484632579 )
( 15.361690201417712 2.737381891086846 -0.0721342564354113 )
( 15.256882573646118 2.908117250154412 -0.0723849617493555 )
( 15.15031034058185 3.0784080262295843 -0.0688597230860411 )
( 15.047546495664472 3.244140660639661 -0.0625358889624009 )
( 14.948095822937768 3.3923155615697422 -0.0547293664098633 )
( 14.84724834170823 3.5141669042758403 -0.0470452927713943 )
( 14.753146993047864 3.621264692012751 -0.0396440139820774 )
( 14.661024775452733 3.72425166777718 -0.0318695513257853 )
( 14.568521766893138 3.828522328094723 -0.02343181677056 )
( 14.476158186275802 3.947312696093774 -0.0141287072700532 )
( 16.278401516463187 1.5493755069267856 0.0098589107925505 )
( 16.14345241800021 1.623384474658045 -0.0014452932197111 )
( 15.98321431442184 1.767915030104659 -0.0167118113177003 )
( 15.830888626384723 1.9059380012747749 -0.0340087707360968 )
( 15.697520917600784 2.022792281931754 -0.0497844596451827 )
( 15.567551393194195 2.146719849151413 -0.0632515702952312 )
( 15.438770792817746 2.2818513958018696 -0.0734400168264634 )
( 15.307094473195582 2.4238827185001437 -0.0802832794256634 )
( 15.167989429713105 2.569914563342392 -0.0826063715281027 )
( 15.034698641505624 2.7340831216455976 -0.0803887434749278 )
( 14.90124077914769 2.907691478158465 -0.0753654577761713 )
( 14.761868243777268 3.080463722335574 -0.0672628449111352 )
( 14.630518845644922 3.2420002508322057 -0.0573780358239734 )
( 14.50461958838425 3.384459724727348 -0.0466847372861057 )
( 14.379247972117122 3.50788446467737 -0.0359132729261065 )
( 14.26133231892023 3.6105364949233145 -0.0263003000020477 )
( 14.14739618539904 3.7095133011278074 -0.0169534460493829 )
( 14.031203013271169 3.816769709948684 -0.0071352430419103 )
( 13.915411554059965 3.9376551702363063 0.0030069754752964 )
( 16.142002591095846 1.5079879010749944 -0.0048930792891334 )
( 15.99138602186875 1.5857208654199606 -0.0193757721178774 )
( 15.81571470960298 1.734105335666444 -0.0375929516026433 )
( 15.649685400866131 1.873312819206865 -0.0560216781941512 )
( 15.498511774637944 1.9927043881434916 -0.0711680259996208 )
( 15.347766972694656 2.119785064466658 -0.0823259298709345 )
( 15.195037653509106 2.257546435639272 -0.0882594038098275 )
( 15.041936074123557 2.3971085045213294 -0.0901961409635634 )
( 14.87793393771006 2.541495999707824 -0.0884383774787698 )
( 14.718745849163284 2.708191343011565 -0.0806126441364413 )
( 14.555675235396112 2.8828280183079844 -0.0698537877182018 )
( 14.390983978161737 3.056809926578854 -0.0578752873137623 )
( 14.234711930254882 3.2156911820345604 -0.045080655491761 )
( 14.081141172805228 3.348973769959346 -0.0327722839516278 )
( 13.938451548465093 3.4637013231492366 -0.0212978484776549 )
( 13.799387325274637 3.5645583184105654 -0.0107832312228344 )
( 13.663204927611972 3.665382090439848 -0.0002842916424472 )
( 13.52651146010329 3.777026547264566 0.0103465558163455 )
( 13.390381217411196 3.901810975900821 0.0210106350239667 )
( 16.01415790135708 1.4593047978147158 -0.0209120886581379 )
( 15.848768954050202 1.5370895359665948 -0.0381734737588817 )
( 15.658230246153911 1.6884600433805164 -0.0577507500035687 )
( 15.479967296786926 1.8278406266468132 -0.0746929664624383 )
( 15.308553740242797 1.9508653528331448 -0.0879078368987662 )
( 15.140858671959244 2.076851892619739 -0.0958421470035882 )
( 14.96981988545706 2.210025711918913 -0.0970004080230498 )
( 14.795617785110409 2.3523580793191763 -0.0935644003599743 )
( 14.61228514420594 2.500055528256912 -0.0869565380724394 )
( 14.420382305040484 2.6627243664237987 -0.0753818957522944 )
( 14.230225243922854 2.836252958851541 -0.0607386747700506 )
( 14.046348207037669 3.0068106603719027 -0.0456010520633374 )
( 13.862814041269468 3.1621113970650128 -0.0304118155331975 )
( 13.686841661564364 3.2917081909830035 -0.0170672876383758 )
( 13.52799495038129 3.400041959912553 -0.0058060259170942 )
( 13.368968883845817 3.5012965098883115 0.0051936869788925 )
( 13.211301662623374 3.602089007571377 0.0165285880154771 )
( 13.05346552421512 3.714446621617328 0.0280033951254891 )
( 12.893545053085532 3.843072167997723 0.0394510030451822 )
( 15.88921424957906 1.4088429688470283 -0.0379761204353659 )
( 15.711228797058386 1.493052605877566 -0.0568243583012282 )
( 15.509130805926851 1.645256722801696 -0.075887113239418 )
( 15.31811653085051 1.7777629009740372 -0.0907229650638273 )
( 15.131789637910376 1.901473610521315 -0.1000920209740246 )
( 14.948742458999009 2.0210945009731733 -0.1033165727705709 )
( 14.757417283390271 2.145622267895026 -0.1010034393902536 )
( 14.557056956565512 2.286404867256487 -0.0930055493625582 )
( 14.356348612382128 2.432613532879259 -0.0809103807079353 )
( 14.143868199216843 2.5934385667489703 -0.0663150551100692 )
( 13.931004838201028 2.770113746652056 -0.0496987817541453 )
( 13.726262976658491 2.9406834681675127 -0.0326412288672472 )
( 13.52298600112497 3.0889575653777053 -0.0163233574858909 )
( 13.331106718105952 3.2161491681969823 -0.0023114730691854 )
( 13.150244841629496 3.3222771272054743 0.0100368336136606 )
( 12.968585392542447 3.4195278489334897 0.0220206640137184 )
( 12.785388910034126 3.517921292595025 0.0338192642443062 )
( 12.603115050399916 3.6297942767596174 0.0450417131480187 )
( 12.419534011963654 3.763646694596803 0.0551791639415997 )
( 15.775339907452356 1.360022629597994 -0.0548078438777975 )
( 15.589846905985848 1.4502730078931931 -0.0730932732839169 )
( 15.370682310875146 1.598544296630947 -0.0910797640623214 )
( 15.169542196111507 1.7217512220442412 -0.1035498065233377 )
( 14.971808082892116 1.839405900978124 -0.1082890405021158 )
( 14.769499328540942 1.95461053928524 -0.106594410537991 )
( 14.55919441941815 2.071222074195729 -0.1007936542431297 )
( 14.3425766588842 2.202987242532416 -0.0892892133053064 )
( 14.121453089664216 2.3509244425216105 -0.0735706533701591 )
( 13.89323505811464 2.5128672703953776 -0.056572887133359 )
( 13.66052307935674 2.6864238437930026 -0.0383181827678456 )
( 13.428510450510322 2.8590465411431807 -0.0192173253695092 )
( 13.21107905387514 3.0023988053064325 -0.0022736590273109 )
( 13.002920139098896 3.1262846956211643 0.0122859557940777 )
( 12.794988083133704 3.2308719934268373 0.0259040229911335 )
( 12.586295297355925 3.323151647451 0.0376702508244644 )
( 12.377884899737504 3.420674960189545 0.0480763298248166 )
( 12.17466485236536 3.5348659952808696 0.0570477206569676 )
( 11.967108180809191 3.674936530439908 0.0647022462592758 )
( 15.669712170319258 1.3076992050909333 -0.0713315143932773 )
( 15.473534042669751 1.3999033086816643 -0.0892120479847033 )
( 15.23975630977615 1.5448486372078762 -0.1040751853099336 )
( 15.03080695741045 1.658476856244611 -0.1121962416793673 )
( 14.82067782574812 1.765352196605105 -0.1128204486039174 )
( 14.60122539221479 1.8770513439940304 -0.1076173696827056 )
( 14.379848042032911 1.9958877831031367 -0.0973003615054919 )
( 14.148466975842002 2.12511704665599 -0.0822529518177401 )
( 13.908214616680905 2.2715434759527398 -0.0645355540985707 )
( 13.661628331475876 2.4289055983372667 -0.0458172878824894 )
( 13.410291317649078 2.5950235981861534 -0.0260301212137085 )
( 13.156920345324982 2.759781364291804 -0.0057491472088466 )
( 12.915727544073308 2.903418269025123 0.0115364278275024 )
( 12.682326801742375 3.030239971272433 0.0261439089311802 )
( 12.448324980312805 3.130947856072732 0.039079814388772 )
( 12.219392519290148 3.2169207520073813 0.0490405839751001 )
( 11.99387035123538 3.3140756909820404 0.0572280039836867 )
( 11.768530234591912 3.4364315024879653 0.0647602308897662 )
( 11.5358125756395 3.585483018521047 0.072921763927056 )
( 15.570204204439216 1.2465355910855682 -0.0882630035944148 )
( 15.364567521983291 1.339111445395016 -0.1047638305884787 )
( 15.124256852414128 1.4819386560711802 -0.1152285632992002 )
( 14.903036528503485 1.5918716976368923 -0.1183781651797724 )
( 14.681662068757309 1.6970061829965164 -0.1149321605449402 )
( 14.450827094459632 1.805780644964562 -0.1059649524913849 )
( 14.216321139012368 1.9215014673802484 -0.0917898866218548 )
( 13.967513764573315 2.0437336837691533 -0.0743277245470151 )
( 13.70943239495451 2.1813236312736426 -0.0552286016584157 )
( 13.447106462628286 2.338289687178582 -0.0346848366321633 )
( 13.17360775334097 2.506195259252712 -0.0133314401966453 )
( 12.900835238053908 2.6636537185146545 0.0065046531539217 )
( 12.6329307080364 2.8031348308775423 0.0231618916249508 )
( 12.369319897195318 2.9250469921423408 0.0371790938656234 )
( 12.11887224890488 3.0168213384382714 0.0480515961419989 )
( 11.87777051785577 3.102363173613361 0.0567754220294076 )
( 11.632293697837277 3.2037137125042228 0.0650265672008478 )
( 11.379671400868247 3.330996149343416 0.0734131663461168 )
( 11.113436544995512 3.493984064318666 0.0839876371050106 )
( 15.47999495870145 1.1772850921418003 -0.1044289066755564 )
( 15.272205961343603 1.271457230563226 -0.1171099593406352 )
( 15.022215698362558 1.412641667683736 -0.1233023364672795 )
( 14.7890598568679 1.5195950965160052 -0.1222769634213421 )
( 14.55591805806175 1.6227199890764072 -0.1145791531735389 )
( 14.31808493928884 1.7246855819714948 -0.1017537577979351 )
( 14.070379886713356 1.834214020222553 -0.0856039505842499 )
( 13.811462285376876 1.9529159076562557 -0.0673501209187493 )
( 13.536004558975046 2.0837241511051885 -0.0468106964412706 )
( 13.2511982704512 2.237769886043725 -0.0247397418561679 )
( 12.954727068290335 2.404989394076054 -0.0029002760988175 )
( 12.655237163336524 2.5637176214024944 0.0166573934686258 )
( 12.36401195373602 2.701676344715409 0.0326885977484012 )
( 12.083984889085746 2.811375599425293 0.0451489524648576 )
( 11.817587004205285 2.896471743627526 0.0550619046750008 )
( 11.552981093549835 2.986850617693823 0.0642986912983543 )
( 11.281152305020916 3.098540320323039 0.0736464062408346 )
( 10.9962376537544 3.226667098994943 0.0838168434720185 )
( 10.687530286055022 3.395010726660184 0.0958092764833694 )
( 15.401225933958832 1.109402576435067 -0.118227137819222 )
( 15.186074820029024 1.2053313413301605 -0.1263872239561091 )
( 14.917805295642165 1.344551453407135 -0.1284496751875863 )
( 14.678050951765517 1.4421605478845665 -0.1235704119064686 )
( 14.439417678712676 1.5382198159349216 -0.1121069136605444 )
( 14.19523101075934 1.6356037012734006 -0.0970174191049425 )
( 13.935196596342353 1.738972636679935 -0.0792648915661418 )
( 13.66061217272972 1.8562014707354857 -0.0592678149070482 )
( 13.37239141676801 1.9829762352696771 -0.0368888603871689 )
( 13.067918497322172 2.1289118520147183 -0.0143768984154196 )
( 12.745329613601418 2.2937720594448874 0.0066840946413784 )
( 12.418605033288914 2.4493083905507698 0.0254521498592611 )
( 12.103500528159614 2.5857908873157367 0.0408489889875994 )
( 11.811937183470288 2.689760767019828 0.0522536814991981 )
( 11.5304199183682 2.772594385093609 0.0621534671672793 )
( 11.240849563185444 2.8651294879440647 0.0723054713961672 )
( 10.934911217766928 2.98047266661977 0.0829817003682811 )
( 10.608432729904784 3.1198410309157425 0.0945017623347773 )
( 10.264931812902809 3.3072480430816045 0.1060200271607971 )
( 15.331070118482875 1.0444472605175177 -0.1295509214276248 )
( 15.10767698043272 1.139010398339258 -0.1341403595023632 )
( 14.827463723215724 1.272806815426273 -0.1317305064649204 )
( 14.5811085264583 1.3599127818790189 -0.1233994182679222 )
( 14.337129107819525 1.445632923694058 -0.1092473578441559 )
( 14.083044301816336 1.545685771739905 -0.0919096394684182 )
( 13.812445795775096 1.641512000864839 -0.0726493313385255 )
( 13.520535610224467 1.747564883433374 -0.0506307461135121 )
( 13.21472939183537 1.8761778077219653 -0.0271314011483673 )
( 12.891921689157575 2.0155221010520346 -0.0052513917806804 )
( 12.539361770839756 2.18004434122916 0.0155319281715074 )
( 12.1839428413305 2.336095105067725 0.033652920929063 )
( 11.85801129280259 2.462069791495585 0.047862829452714 )
( 11.558085472084157 2.560741362580226 0.0596425307719239 )
( 11.2575049753511 2.645928619221721 0.0699576804410924 )
( 10.93939711962473 2.740670326863659 0.0805583160354661 )
( 10.594184726100584 2.85743491799892 0.0933724833373637 )
( 10.224916096929649 3.0124580277865247 0.1044162118805378 )
( 9.865469454671006 3.238062538808406 0.113042392077227 )
( 15.269933508024147 0.9801687593203188 -0.1378890871603834 )
( 15.035784345641169 1.0683047889079635 -0.1398677868897286 )
( 14.748107810286209 1.1990769141045552 -0.1329287591664431 )
( 14.500306097893244 1.2808882105003363 -0.1219163322176516 )
( 14.248002361442357 1.3600787360142128 -0.1057420564407265 )
( 13.979075914196605 1.454065550335392 -0.0857614689783498 )
( 13.696186601832768 1.5398673362039146 -0.0653480345631584 )
( 13.396858581053996 1.641603515699908 -0.043023593778096 )
( 13.071889844523485 1.7692357115183426 -0.0194611823928641 )
( 12.724339465604269 1.8985633291711044 0.0020851952550524 )
( 12.358327189232003 2.055266120130555 0.0223602864192668 )
( 11.981586122404408 2.2209172466322924 0.0404747809824191 )
( 11.640845681354543 2.3415665883280643 0.0550079075769154 )
( 11.323052806763044 2.43000820629212 0.0671446564496787 )
( 10.992694426386583 2.517213263810425 0.0772655715685305 )
( 10.635495249770782 2.609535712293289 0.0883776140956747 )
( 10.253911742325888 2.734178302677177 0.1002826830655636 )
( 9.864621911812456 2.911968616479046 0.1086588756628528 )
( 9.507398056329894 3.1845222431860503 0.1157226389931961 )
( 15.212334734296151 0.9149963190153044 -0.1446300738186297 )
( 14.971552936804049 0.996974945109982 -0.1431484537901427 )
( 14.677971824216524 1.1205458559003163 -0.1327816423493188 )
( 14.429307895554516 1.1970237634962195 -0.119776445775715 )
( 14.169048822535958 1.2758973720044862 -0.1021341974246923 )
( 13.88669871089995 1.3627668507338206 -0.0803913018039924 )
( 13.595604526193467 1.4356640833027934 -0.0592066301914296 )
( 13.28274073693414 1.5363272989958203 -0.0365002317098955 )
( 12.936729677318189 1.6628621099309486 -0.0128072451903186 )
( 12.569110477651044 1.7913752393513165 0.0089088323018494 )
( 12.18388774155608 1.9347656795645456 0.0299309765770599 )
( 11.793031504594053 2.0828992736452547 0.0481831015765069 )
( 11.435670928870952 2.203830922024665 0.0625489769609997 )
( 11.089407643138816 2.295823167043587 0.0743214765010314 )
( 10.727732526163356 2.374158120917496 0.0838662865816214 )
( 10.340226952185178 2.4668548407553765 0.0939899297746321 )
( 9.930075543090146 2.6017254436168504 0.1038121114135104 )
( 9.537497466848606 2.81741799576163 0.1095632271758891 )
( 9.162758356915615 3.1546837600392683 0.1139130736399971 )
( 15.162969403702808 0.8472614322964287 -0.1505746048869443 )
( 14.917684158814264 0.9227181042384688 -0.1455252074251029 )
( 14.615594207781792 1.0349732394705011 -0.1317766423277017 )
( 14.364278928666524 1.1100784112819095 -0.1171712944056568 )
( 14.096202178849136 1.183852390838788 -0.0986092694118616 )
( 13.80023646313174 1.266064944383099 -0.0751066279985336 )
( 13.5074354015634 1.3388506587062852 -0.0532041000948812 )
( 13.181104323742463 1.4272310836600988 -0.0303090720994205 )
( 12.81244664695071 1.5479765849737044 -0.006358516506556 )
( 12.42264968367367 1.6792766911692143 0.0157298599796997 )
( 12.010778751330534 1.818411279446063 0.0372045771186898 )
( 11.613250335651994 1.950361202344084 0.0546733920953784 )
( 11.235045778753028 2.059794825120937 0.0683933347768911 )
( 10.856476391365574 2.1514385067996784 0.0805760359803526 )
( 10.472952057618215 2.231026489029196 0.0906411683076665 )
( 10.062840944903389 2.332768074896361 0.0996884262567267 )
( 9.631804652895983 2.484667684291319 0.1072376152316789 )
( 9.226188983418965 2.7349071737321475 0.1110960958603242 )
( 8.755435956635282 3.095146021091965 0.1093258459629092 )
( 15.124084599229883 0.7794342858714152 -0.1541751047972822 )
( 14.869919384981788 0.8437407148125786 -0.1465384294516923 )
( 14.560064845839197 0.9476080452739906 -0.1303456967870114 )
( 14.303277271778253 1.0202860614800626 -0.1141227107898459 )
( 14.027880433233456 1.0912961058334447 -0.0945514535856663 )
( 13.721147821966309 1.1735806413891798 -0.0700538806296686 )
( 13.416306625432917 1.2428724270323632 -0.0467467567528203 )
( 13.083691934444747 1.3198832163705168 -0.0237116829625798 )
( 12.703720852611678 1.429640319718874 -0.0002559908582469 )
( 12.291689337815406 1.551349857627909 0.0216937599787738 )
( 11.857809801517927 1.6918021239709276 0.0418657170506467 )
( 11.444750125003612 1.8245138906451528 0.058134203569711 )
( 11.041644711031616 1.921917654316584 0.0727038607009073 )
( 10.640388521896083 2.002783190344155 0.0849667054319946 )
( 10.225350399836216 2.0942865379841824 0.09642636178785 )
( 9.793948517110842 2.2038348198052677 0.1058917359227709 )
( 9.35482699827467 2.3740226951824206 0.109635708842177 )
( 8.880539077984913 2.653818638409404 0.1111941785205931 )
( 8.245827276282563 2.975367672435049 0.103599250555691 )
( 15.08831601364458 0.7067076396237962 -0.1568248539312374 )
( 14.830567005847074 0.7685819195956847 -0.1473184293991604 )
( 14.518180180206016 0.8638520109637561 -0.1298235850943617 )
( 14.252154960720295 0.9247049816496706 -0.1118535103378665 )
( 13.968633671522865 0.995506551351474 -0.0901299376748585 )
( 13.654305577634831 1.080347809089612 -0.0651860289266025 )
( 13.33574375544299 1.141260441828544 -0.041631711766923 )
( 12.996925449902934 1.2098133529624109 -0.0184113041287844 )
( 12.59776783688318 1.31414432027744 0.0057106691331415 )
( 12.167475762322276 1.4295846922174724 0.0279012587340016 )
( 11.717040763559176 1.5611593763186025 0.0465912098129131 )
( 11.2742540981438 1.688729704535092 0.0626000256849133 )
( 10.855995971920208 1.7885817563209911 0.0776514925289088 )
( 10.446789790231492 1.865237812721387 0.0881578499604068 )
( 10.0032699004238 1.957498728509459 0.0985614853348426 )
( 9.5405812459911 2.0732634326145902 0.1058904669240384 )
( 9.084618612563064 2.2580526942105816 0.1091531411325234 )
( 8.51219354432979 2.549096665565597 0.1084286774701028 )
( 7.637470307963905 2.78534790136554 0.0946262486328105 )
( 15.056897441297687 0.632220960782512 -0.1592893498350103 )
( 14.79679475174009 0.6945113216026899 -0.1475150752913652 )
( 14.480130937013438 0.7855891986870632 -0.1285065203487882 )
( 14.20879606611337 0.8402874483102551 -0.1096410431366926 )
( 13.915017891193628 0.9049048314724564 -0.0857592455364353 )
( 13.588066764347758 0.9750834349457128 -0.0597210927121726 )
( 13.259389688071964 1.0323741928879586 -0.0365788387953576 )
( 12.914118891082577 1.096628640184499 -0.0141916444340748 )
( 12.488865038796282 1.1942475217718245 0.0112583199328455 )
( 12.039832424547836 1.3110059344214724 0.0343806871485457 )
( 11.585392501716669 1.4334941416933336 0.0513731783906481 )
( 11.12902837284912 1.5578785903793246 0.0672603455948011 )
( 10.693054928589747 1.6618244149126016 0.0821976346366696 )
( 10.256033970700225 1.7304887860525262 0.0923613247615853 )
( 9.79922512829872 1.8140667204041443 0.1008920610159608 )
( 9.315409677308018 1.9354684351836136 0.1055419216057661 )
( 8.79219994299998 2.1382186637828284 0.1066853192080191 )
( 8.149280950706556 2.431482577602768 0.1012281829457042 )
( 6.8913102502437855 2.4995317039637457 0.0824993642649718 )
( 15.028492638167606 0.5652359525553968 -0.1604063437514942 )
( 14.762596630498267 0.6210625491094164 -0.1463446471806853 )
( 14.442399253093518 0.7067552535727215 -0.1260347534625447 )
( 14.169353711138442 0.760304237592922 -0.1062465355037296 )
( 13.866429638289803 0.8160282809923831 -0.081745600925397 )
( 13.53352856413505 0.8728057300394945 -0.0561679462083313 )
( 13.194473047018189 0.9325872825040752 -0.0322943619347993 )
( 12.830575488707412 0.999744875435634 -0.0087527854614643 )
( 12.38633308512236 1.0834551504236278 0.0167586072692177 )
( 11.91508635387747 1.1937198409938203 0.0398232954247024 )
( 11.45396298919514 1.3065684361093266 0.0564842675624877 )
( 10.998663772953156 1.4143883759501137 0.0706673945435416 )
( 10.546292148729629 1.510880960603653 0.0843075865585203 )
( 10.078836135462664 1.5819887354104916 0.0957809119502311 )
( 9.597317146552312 1.6607899672996893 0.1055775564144294 )
( 9.091401836798896 1.7851798093844513 0.1097163276197344 )
( 8.48642187929499 1.998285183789699 0.1067212082368961 )
( 7.65714605112216 2.2372013983250545 0.096562889310785 )
( 6.170734691217089 2.178345305548812 0.075373126811488 )
( 15.006896875617723 0.4971569527628651 -0.1603705780976261 )
( 14.73497447442974 0.5495759028416449 -0.1448992164425548 )
( 14.406535250057615 0.6289541457630075 -0.1235417373287912 )
( 14.131087891803425 0.675329755793523 -0.1028667140706966 )
( 13.821986084304736 0.7292512221004954 -0.0782386681626499 )
( 13.487587304681565 0.7880647424366274 -0.0530765090159803 )
( 13.144246401105253 0.8448597515598314 -0.0285026418068594 )
( 12.75885701410093 0.9039417467173388 -0.0031318801108641 )
( 12.302729918178162 0.981488802159507 0.0223977176522147 )
( 11.822727927362024 1.0840678949712956 0.0444197989682721 )
( 11.343518547729806 1.1873189981103658 0.0611720767430996 )
( 10.865177987102726 1.275049564016558 0.0746239958336184 )
( 10.393982836378028 1.3541842340415935 0.086251987613297 )
( 9.908639138733248 1.4235202487197134 0.0968457699728404 )
( 9.407072128115994 1.5052270746453194 0.1061806703762259 )
( 8.859559138569264 1.6465759954125407 0.108628913080706 )
( 8.193052835285968 1.8521432178563144 0.1060233816280257 )
( 7.130003926658242 1.982060582024677 0.0936393303125918 )
( 5.553134876254723 1.869291316068753 0.0687762006914329 )
( 14.990501447723991 0.4262922777328107 -0.1601166837650867 )
( 14.716874948246218 0.4780704515300469 -0.1441978140049535 )
( 14.379202307763537 0.553524874108252 -0.1219035812961915 )
( 14.09659336732495 0.5923748912396551 -0.1000766048891674 )
( 13.780557488355038 0.6402792980997392 -0.0745118902989384 )
( 13.441575276042489 0.6971648150905809 -0.0481196014919261 )
( 13.093383598501608 0.7398860761000449 -0.0237319734156397 )
( 12.695842199806975 0.7940361088043997 0.0016636100226502 )
( 12.236574963712137 0.8801826110146926 0.0267369994122052 )
( 11.74904653031745 0.9750829227006896 0.0474458502358935 )
( 11.245830971799071 1.071622674439545 0.063692114831625 )
( 10.74469309849664 1.1422020079092383 0.0773815011169916 )
( 10.255597269636878 1.2056160956509092 0.0879752286827042 )
( 9.741624083533726 1.266670917706604 0.0975770623309947 )
( 9.222457460451231 1.3471869372451737 0.1034889799340476 )
( 8.615563293571496 1.4967268801132665 0.1033050124476813 )
( 7.874163741743613 1.6790427277536513 0.1011933815966557 )
( 6.691773341703661 1.7285849505329045 0.0889028100965173 )
( 4.988199992576016 1.559216880289674 0.0630840812411568 )
( 14.975782028981572 0.3650741582637559 -0.1598638107181702 )
( 14.699991297965031 0.4105614782180045 -0.142948126963929 )
( 14.357383503072692 0.4770856215018192 -0.1200105281918249 )
( 14.067467940733398 0.5125403363774845 -0.0975613256225751 )
( 13.74625317148152 0.5518941372449246 -0.0712912233361385 )