/*--------------------------------*- C++ -*----------------------------------*\
| =========                 |                                                 |
| \\      /  F ield         | OpenFOAM: The Open Source CFD Toolbox           |
|  \\    /   O peration     | Version:  2112                                  |
|   \\  /    A nd           | Website:  www.openfoam.com                      |
|    \\/     M anipulation  |                                                 |
\*---------------------------------------------------------------------------*/
FoamFile
{
    version     2.0;
    format      ascii;
    arch        "LSB;label=32;scalar=64";
    class       volScalarField;
    location    "0.0062";
    object      k_LES;
}
// * * * * * * * * * * * * * * * * * * * * * * * * * * * * * * * * * * * * * // 
 
dimensions      [0 2 -2 0 0 0 0];
 
internalField   nonuniform List<scalar> 
13597
(
0.1844889338605728
0.1819145898899328
0.1762196535476437
0.1716068127956523
0.1700062768070477
0.1694552986959933
0.1692444041199493
0.1699019858624299
0.1714122916103267
0.1733108930684661
0.1766333229529071
0.180997570922155
0.1850798263906726
0.1894806541490671
0.1940519315744461
0.1984854709874263
0.2025394630788662
0.2054256711331932
0.2075922215817707
0.1922683425863285
0.189231306549989
0.1818062339746589
0.1775414718664175
0.1760006305084401
0.1749519047459453
0.1746637363059965
0.1754631411941459
0.1771300878557485
0.1787426916301083
0.1813377198830571
0.1846764785848822
0.1875435270878323
0.1907818820652247
0.1946482570301591
0.1980172680025255
0.2005279780266803
0.2029367759232819
0.2055199080838051
0.1950500049135182
0.1912494922042115
0.1831230538326103
0.1785310494851738
0.1769145075744699
0.1762957777724389
0.1759303113706956
0.176570363484094
0.1782924694616843
0.180799835608108
0.1837973915003293
0.1875000105653315
0.1913471459356929
0.1949430729443664
0.1985230081060677
0.2016881915700691
0.2043828983376468
0.2070477642540209
0.2097352813602472
0.1944287882608715
0.1903478795067979
0.183201464942933
0.1798730818588163
0.179527139430391
0.1799205243764213
0.1808208565984317
0.1832265044135811
0.1861405735119338
0.1895336643962395
0.1928755007933236
0.1965767676059252
0.2000590800518109
0.203906412637931
0.2075590274585223
0.2105978273806444
0.2135996765975557
0.2169467694526977
0.2205437928501984
0.1937604951214874
0.1895080627739268
0.184820619027696
0.184387221139874
0.1854913577174262
0.1872311850195056
0.1899171682237883
0.1932396289611349
0.1962954136720467
0.1993728914784422
0.202931506667079
0.2070300864827679
0.2113264441830056
0.2160923755119858
0.2207299457575793
0.2250386177763749
0.2293288574126304
0.2339418887273809
0.2390026786918678
0.1942323063469656
0.1905688889903517
0.1879588780596742
0.1899598213873205
0.1923070449413783
0.1953228415684631
0.1985056860611396
0.2019714559103392
0.2059682366651639
0.2099944643723605
0.2141388546674764
0.2189846313320295
0.2247986085292572
0.2301220485340954
0.2356731652305092
0.2412251969129807
0.2463879850803988
0.2513038968990703
0.2567650403426156
0.1955737816218111
0.1931891230358639
0.1927392318766363
0.1956090590921453
0.1986454478063283
0.2023971184937671
0.2059180104966145
0.2100817604081482
0.2153941878234476
0.2205695700651289
0.2257108857404824
0.2317153530390217
0.2381213377446896
0.2439070550312849
0.2500418840732771
0.2558336548493745
0.2611236539879515
0.2662971775520069
0.2717517035260831
0.1983215283364225
0.1970330025709004
0.1978562430049512
0.2013076285771072
0.204716476689382
0.2083736983269802
0.2134038210060867
0.2192768786956765
0.2251267323439405
0.2309919514277291
0.2372248667848945
0.2440374910271051
0.2504112341506119
0.2565515040115489
0.2627039694551987
0.268341164902129
0.2737953839825615
0.2792203958067348
0.2846903344651766
0.2012059272247783
0.2000885942355114
0.201399757121984
0.2055703640130452
0.2101298245754121
0.214821522934924
0.2207669414576666
0.2275675314074266
0.2341264255663536
0.2409295792563778
0.2475270998599455
0.2544899462785275
0.2611664444962538
0.2678225647702592
0.2742696724629094
0.2801481104261863
0.2857228454956419
0.2914463857197373
0.2972873599897123
0.2039477989905825
0.2024576347180166
0.2038234630730569
0.2090247480599062
0.2149041729036732
0.2210416253711999
0.2275945421933373
0.2352522686488558
0.2427306177071894
0.2497905316537608
0.2567972348973563
0.2638464110638611
0.2712418737361441
0.278452332201293
0.2849521665950387
0.2911884883748032
0.2973738731045202
0.3037466811177489
0.3103031048233832
0.2058396939382238
0.2034585410625665
0.2060126677831156
0.2124753435857403
0.2193393856376727
0.227065962470803
0.2350583733198676
0.2433698761282119
0.251107676460049
0.2579701392976071
0.2648472513865688
0.2724385213941487
0.2802174141353755
0.2877417894819802
0.2949789438699053
0.3019726793860464
0.3092703997252047
0.3167066465554355
0.3246170307696469
0.205142072075051
0.2026051623294558
0.207699903595024
0.2156985523835136
0.2239258153509709
0.2330294181709025
0.2420915598702855
0.2507218006914483
0.2580186868200912
0.2647013836277683
0.2719682239013212
0.2802398931017735
0.2883537597606063
0.2966169528570763
0.3052280067236033
0.3135225697772969
0.3219764620231236
0.3312276721827706
0.3416531968581117
0.2035602199423281
0.2020706447221392
0.2094202851599544
0.2188773567809752
0.2287149113390059
0.2386996859941763
0.24826261915056
0.2570549070246761
0.2645227976362858
0.2712566888019532
0.2789726280795213
0.2876457480283911
0.2966438946940909
0.3063221664774649
0.3160554031150518
0.3256990614065921
0.3364048958823798
0.3486401349446578
0.3622000094416237
0.2024351274578439
0.2019430443113922
0.2112249817624497
0.2222498290112153
0.2338219849451174
0.2447169453472144
0.2540636283879569
0.2622184482390414
0.2699096144243459
0.2772372227897322
0.2851170035691133
0.2947114537844404
0.3052219527066744
0.3161364484400855
0.3273497088295986
0.3394434919953253
0.3534675971495275
0.3691293468879963
0.386455581710439
0.2005117179232378
0.2013904638795912
0.2138601915373921
0.226589136918729
0.2394403028820741
0.2502641861791798
0.2592096070395397
0.2672540852806851
0.2747597314400727
0.2824056122265362
0.2911276742677265
0.3020688095694253
0.3142993065947916
0.32668854205833
0.3400394999904385
0.3554041043542272
0.3730231608438197
0.3928650672723563
0.4171316416700085
0.1981046516844229
0.2014049844624706
0.2168316395645664
0.2309010182465759
0.2441945287294352
0.2549233482987965
0.263853373939985
0.2718614158505253
0.2794681223930551
0.2873942338385387
0.2974778627694263
0.3101691440230198
0.3238165683464316
0.3381597416827679
0.3543144924353855
0.3729569525700069
0.3948164676965164
0.4218592851204651
0.4586378216364948
0.1959962835648382
0.2024663514796553
0.2203103476585955
0.234906283343811
0.2480347485493602
0.2590623042353875
0.2679637031925264
0.275616952276646
0.2832134632615262
0.292039858748357
0.3031470298475964
0.3176228400133703
0.3333685473643513
0.3500081685075816
0.3695580930232968
0.3923654021590729
0.4204138817990388
0.4590472402887149
0.5096143463238443
0.1948867665110382
0.2040826067173374
0.2239802241663887
0.2388907989877315
0.251613178308843
0.2625825554661407
0.2712340517675531
0.2785912403911078
0.2867659126897943
0.2963972513261177
0.308698901504469
0.3251016523537473
0.3433750908593632
0.3632164888203711
0.3863080611811774
0.4138987338340917
0.4521539937319088
0.5048582605073044
0.5572113408105662
0.1951237832835199
0.2062716321311649
0.2276892114235687
0.2427241135887153
0.2550783813899651
0.2658971583021118
0.2740192146695412
0.2812673734026434
0.2900667884367203
0.3006797232880336
0.3151530138215951
0.3332569332581477
0.3540427178507561
0.3777242274997744
0.4047313896899527
0.4397286385930156
0.4912525107319629
0.5570702921846653
0.5955691751728542
0.1960329005931896
0.2090130133391861
0.2313858152824194
0.2463331254103986
0.2583205984717944
0.268705232987428
0.2768580023920015
0.2841657993499071
0.293040902733909
0.3049567358707559
0.3214654458276731
0.3417361701430041
0.3653703666945972
0.3922580081768188
0.4258420809640046
0.4708866206894564
0.5365727922921861
0.6099966822734407
0.6222253359022895
0.1975442239714667
0.2116240612621847
0.2339061144369758
0.2489480821172619
0.2609889263103772
0.2709025029606601
0.2790677884941851
0.2865173828668428
0.2959646705768201
0.3092161494566537
0.3275644066193855
0.3508973485904142
0.377202936717948
0.4069066406240521
0.4482125057491211
0.5069729597892209
0.5866533091140299
0.6577543198479724
0.618802454211012
0.1995177453102513
0.2142537097995587
0.2364868807111012
0.2511135537256121
0.263321628870736
0.2732833037379834
0.2810087873928454
0.2882901080419279
0.2987341059532928
0.3135982147992308
0.3336899219388947
0.3590924909547998
0.3882212440771157
0.4234415446216962
0.4722426799080501
0.546184919029644
0.6369043509380475
0.6958847437343412
0.5726241204146093
0.2015959387788014
0.2171978499839524
0.2392447241948646
0.253229106102929
0.2650195845768586
0.2748449508871128
0.2830206037438987
0.2906042392571355
0.3017351967737335
0.3184173490531319
0.340434330490958
0.3673526440451894
0.3991381240501327
0.4404609783547306
0.5010144443468573
0.5892951818088777
0.6849316526280022
0.703344480843494
0.5200354019727546
0.2039792404168497
0.2199543919194677
0.24186017768067
0.2554309984815873
0.2662986160624517
0.2756182471310301
0.2841149127521742
0.2924652348958387
0.3044496904528695
0.3225223345687509
0.3467319326225063
0.3767018598708699
0.4119801419142016
0.4591439124963237
0.5320655226254486
0.6333759411843733
0.7282651541183334
0.6879725454417542
0.4716110812521936
0.206496506551795
0.221863654401422
0.2435845833589771
0.2570700941361991
0.2673355221355298
0.2765671247770135
0.2848577098951808
0.29371269081231
0.3066817898789269
0.3259675910467048
0.3526108015998086
0.3857176919416263
0.4250290937816545
0.4821532065032397
0.5652569970987856
0.6741054755080311
0.7583284905133059
0.6692049164209385
0.4193105659340331
0.2086610153438543
0.2234759534824414
0.2448414064859289
0.2580640292274926
0.2682881809137915
0.2775731827524023
0.2858016716394462
0.2950391537055098
0.3089797921564836
0.3298681621588585
0.358417648804408
0.394006077424917
0.4381055088260128
0.5043697270195167
0.5981507818444247
0.7132633963832442
0.7640237636653072
0.6326938708720313
0.3795435827936254
0.2105832323567552
0.2250417787440356
0.2460171293405678
0.2587856947624436
0.2689719903500078
0.2783016298255527
0.2866405300408373
0.2963948288964531
0.3113889981187844
0.3338503170982717
0.3641147043930502
0.4018867815228329
0.4510389491780409
0.5239253741446659
0.6291085713273651
0.7477950511683069
0.7643060775758503
0.5934132324424484
0.3465174978906868
0.212317883297633
0.226120683333811
0.2465781923626488
0.2597526309245556
0.2698320810468455
0.2790142221649901
0.2875285121714612
0.2976956055855586
0.3135537517225628
0.3379355802546016
0.3703689608166754
0.4094429099783653
0.4631922492186443
0.5441361537264154
0.6620678774164969
0.7799318447305617
0.7741678961158305
0.5674278194937109
0.3191960522474371
0.2134515715783216
0.2267715240568876
0.2466635696675915
0.2604042404195268
0.2701499310340475
0.2790519418041922
0.2879868542942096
0.2986849410564029
0.3156891017501817
0.3416037919551208
0.3752598587356234
0.4172460076983607
0.4783971066901556
0.5657037969984379
0.6917535189567391
0.8035433228401061
0.7721542592951579
0.5437268013533909
0.3016116402292623
0.2140695291670202
0.2270161649165391
0.2468166126747717
0.2605448527065608
0.2699149803532179
0.2785697917029205
0.2879307672780583
0.2993755045465153
0.3178556778889324
0.344447939699523
0.3788458263015686
0.4254431181043586
0.4919558139888998
0.5857897458894712
0.7172098633704305
0.799450710360324
0.7404761966469069
0.5201620860258316
0.2910097940572153
0.2145782311131026
0.2272007150625229
0.2471096180277057
0.26056652110168
0.2697675285061426
0.278133815422428
0.2877395405091764
0.3002397522291594
0.3198404453552746
0.347280295230679
0.3830503866013318
0.4330319093035954
0.5017090202703299
0.6035578355543856
0.7398704069900375
0.7912096489083597
0.7073254972910458
0.4991282405146742
0.2833781829450984
0.2149219063749382
0.2274164324431541
0.247252643751952
0.2601299797773377
0.2694263626783592
0.2778569349892512
0.2877313202045446
0.3014079166489623
0.321775057681511
0.3501777299833373
0.3873706440377176
0.4395119010133326
0.5117138860631282
0.625052337788842
0.7612218488629704
0.7975787035800656
0.6970941903974303
0.4815121378334657
0.2742701190843717
0.2149209860517837
0.2276888492668934
0.2472511671004637
0.2596762941979336
0.2691883526071736
0.2776745009712028
0.2877303008195015
0.3022826944838839
0.3235800434804479
0.3530616402154647
0.391660428204707
0.4461382942760026
0.5212723034847393
0.6434641362053407
0.7811802511138513
0.808573855258467
0.6957543795867593
0.4684904875380943
0.2639132692787069
0.2147675087170415
0.2275620587901668
0.2466037562523955
0.2590388849865812
0.2690544979013593
0.2775599248437677
0.2873720590544319
0.302543965543234
0.3250539044649129
0.3559719220815034
0.3964729992046612
0.4527521602955112
0.5297613590702192
0.6571837000291763
0.7987315986442474
0.818996070054996
0.6955551287344959
0.4603866272232946
0.2573927804004065
0.2146765824586576
0.2273120845239814
0.2460294424205362
0.2583540158811072
0.2688735870813882
0.2774887046670168
0.2871244054510798
0.3026316867155457
0.3259847056302435
0.3580855025809476
0.4003629077942268
0.4581150440026456
0.5385169171722187
0.6707492479511663
0.8119112448951735
0.8244622980631213
0.6922878603481518
0.4535684687064725
0.2531106104515652
0.2145825581741718
0.2269439684727948
0.2456965168035591
0.2580662042767607
0.2684828939794221
0.276931927198164
0.2867691879577017
0.3027090643761312
0.3267404473212707
0.3594538921206263
0.4030596550105064
0.4626179029329663
0.5465644849702155
0.6801032751142675
0.8215008481317605
0.8300624153078655
0.6879777773113197
0.4458503800889596
0.2480580652603504
0.2144447289269007
0.226445412515878
0.2451672169966749
0.2576949429781137
0.2680548896074833
0.2764367701327493
0.2865738080439829
0.3028557751829882
0.3275209577884603
0.3609746191464052
0.4056188701421483
0.4670902669531337
0.5532042808852783
0.6880921297479304
0.828714766137471
0.8312561337511253
0.6866078840410206
0.4434152421050637
0.2441047296753247
0.2141919909654613
0.2261127317960271
0.2445405177961316
0.2568770974705167
0.2673057302520064
0.2756980235993742
0.2864760280418275
0.3032422250567467
0.3285175545306404
0.3622239602883483
0.4078298461688674
0.4712894316584302
0.5610945820164293
0.697000695467549
0.8309080521994741
0.8291018860338434
0.6824606602031154
0.441753680167574
0.2420580825037826
0.213630307704384
0.2254101526741079
0.2436922656121985
0.2561572634203417
0.2666932180335277
0.2749091887309558
0.2859972040209972
0.3031329626472606
0.3293066369503827
0.3631734560140909
0.4094777541672189
0.4748208876900077
0.5702002126162519
0.7082039144034775
0.8307625159841092
0.824290840709033
0.6749080002925449
0.4368717533388511
0.2411575796154293
0.2128506676133244
0.2244237233031246
0.2426279860287324
0.2555137882342638
0.2660737033323547
0.2742722095119414
0.2854735545210038
0.3025439628683412
0.3292497110079427
0.3636386823742273
0.4105068538072279
0.4769990315035114
0.5754383026470526
0.7165535504422342
0.8313163889767837
0.817323254598213
0.6698862953427539
0.4342687688921686
0.2408868443196686
0.2122273043779299
0.2236327452840616
0.2419157394160341
0.2548295438648859
0.2651354866094388
0.273432618193656
0.2849433722249316
0.30218306894276
0.3292718558396113
0.3645992563760823
0.4116713514254425
0.4793551338690021
0.5793376442265603
0.7202831468257388
0.8295109896623769
0.8094662282429602
0.6640849776289808
0.4313470427468935
0.2407588381786626
0.2118025876710789
0.2230929751667326
0.2416983342520729
0.2544186456566688
0.2643160275036136
0.2728597958707988
0.2846616272375848
0.3021136299601794
0.3298252157395034
0.3664614738301399
0.4134083596200303
0.4817362066602141
0.5829653583529568
0.7218066652210131
0.8280943066900137
0.8057823138578739
0.6582963896056682
0.4261456751313433
0.2394200201895534
0.2113998182819734
0.222413650150408
0.2409705600815564
0.2534649743017746
0.2632944526049726
0.2723987551105665
0.2844373336728321
0.3018924383895833
0.3296196383538846
0.3672564836073278
0.4147438508873825
0.4826420120604063
0.5836169028092498
0.7243747803606414
0.8312730445314775
0.8050411487780516
0.653279500123023
0.4213426571372953
0.2365953635308023
0.2110886273831188
0.2219127074619472
0.240088968092163
0.2521555855507498
0.2621636153360349
0.2718675326077028
0.2840265376469444
0.3017022636388242
0.329789861258111
0.3681501280585929
0.4160344959747945
0.4843350695393953
0.5851928629766827
0.7269195858543425
0.8287131818914502
0.7980540704499817
0.6476976299756085
0.4179606673034986
0.2350016909529465
0.1418897499261576
0.1437352418935751
0.1475659738279116
0.1537002386748565
0.1591200602979559
0.1628591715542325
0.166098252861145
0.167687146485214
0.1680662140642319
0.167365630053531
0.1657310281312482
0.1636534822781841
0.1603052535809602
0.1558301315028171
0.1508866507070838
0.1456806430659126
0.1403881395283105
0.1352918729974118
0.1306247305652451
0.1520740458680456
0.1569036278752118
0.1626755796100245
0.1699442472453418
0.1755757384351353
0.1783505015688947
0.1801350717118222
0.1798108793865934
0.1770763836512886
0.173367080904392
0.1687807136675061
0.1638690915649654
0.1588729601382145
0.1530285486625139
0.1472758505498533
0.142673827969357
0.1393749035601983
0.1371681633813447
0.13563642589783
0.1677950960349656
0.1755806396480432
0.1832852100838153
0.1902445857008067
0.1942717282887586
0.1952918207055214
0.1938514687746095
0.1901680732464168
0.1846925147503351
0.1782208344580919
0.1708454090714708
0.1635134507997861
0.1569447133985843
0.1520798473525242
0.1493045330824133
0.1484385575223498
0.1487637975077088
0.1496312117203511
0.1512326156787208
0.1873249142100067
0.1961873927971594
0.2026810648633454
0.2069099324466172
0.2072867997416305
0.2049348570675508
0.2000306265525272
0.1926996089987896
0.1839788299227884
0.1746806606088139
0.1664552841543198
0.1600592627640795
0.1558762465656802
0.1552075208787042
0.1565993062571423
0.1592893832428833
0.1630525679304884
0.1677500547324205
0.1737024222711543
0.2046288803379721
0.2120231997629949
0.2154360620488827
0.2159204146566199
0.2120883355903048
0.2052757092915111
0.1973423828179682
0.187605005277769
0.1780735946064919
0.1697413140493516
0.1639845251071716
0.1619291485477441
0.1631207672271125
0.1677700560110182
0.1736504272747937
0.1800056672668254
0.1869896812318421
0.194452062625189
0.2026599989024778
0.2160329736963381
0.2203241042746394
0.2200828557102087
0.2167166501481319
0.2094528086752293
0.2000355141928319
0.1905199493768157
0.1807169312629657
0.1733563651314077
0.1687978377005116
0.1673702299473588
0.1701495124634529
0.1765552450166566
0.1846695677722198
0.1930207465413105
0.2010553205098465
0.2083684728049757
0.2156432430625669
0.223163558054843
0.2226695042732902
0.2226674116059168
0.2178612974915632
0.2120404071036739
0.2034088820557054
0.1935764545779537
0.1843968837045571
0.1767179569367025
0.1726705093726739
0.1719785221447621
0.1749205480734525
0.181601144588371
0.1904683542271719
0.1997492383988327
0.2084447225245579
0.2160672712450491
0.2225118236785648
0.228737011165555
0.2347379435339999
0.2231892073109754
0.2194411849632381
0.2131224059776423
0.2056970122820787
0.1965508863498628
0.187497044768744
0.18003619548237
0.1754080494040361
0.1745503316915216
0.1771968710982615
0.1834389317500331
0.1926864189039047
0.2022551943210333
0.211571067957959
0.2198039204388126
0.2265035000326086
0.2321047008420727
0.237568651770311
0.2426049171723426
0.220713967671179
0.2147633926134424
0.2074149833847559
0.1996020220908196
0.1909976225076914
0.1835490670248322
0.178539142749769
0.1767555094053608
0.1783120085902491
0.1836090258366732
0.191948822253836
0.2021461502030091
0.2122865973074935
0.2210983568159273
0.2285272483048916
0.2348476943751029
0.2406804891074268
0.2462168371854093
0.2508578274145722
0.2160748617046759
0.2091160924335261
0.2018228569856784
0.1948596438327832
0.1871892885736573
0.1817731685556031
0.1792038445847198
0.1797642564177297
0.1833724960970456
0.1907568347070332
0.2004230992377207
0.210734061923709
0.2208233715385915
0.2294906484920234
0.2372113360171402
0.2441269288896892
0.2506942427616378
0.2565445136157661
0.261372617044639
0.2097097726892856
0.2031737686856049
0.1970540244176625
0.1913455199813794
0.1855393032354764
0.181499176618507
0.1806049288203093
0.1831561627077363
0.1887730636116501
0.1975781079208401
0.2084634839004596
0.2195581760060692
0.2296515679784104
0.2389050385207153
0.2473989862145216
0.2549061963131127
0.2620398699104215
0.2687648785970798
0.2747405237556501
0.2042158457718937
0.1981350559674838
0.193299331519273
0.1886573637851734
0.1843558009162692
0.1822503375725426
0.1831388127974741
0.1873578517891237
0.1947491406519962
0.2046286301803145
0.2169895755224146
0.2290341074291574
0.2395382986217872
0.2496371757919079
0.2586643860961728
0.2672168014102364
0.275654153990539
0.2838709720649536
0.2916130715204916
0.1994411779653707
0.193603751806948
0.190543816634216
0.187588820324401
0.1843993960710627
0.1838920377405578
0.186457464328147
0.1923591941431234
0.2014855133285534
0.2125033898790259
0.2253537744133403
0.238524380794935
0.2501291577320788
0.261127483955309
0.2713663744985464
0.2813899274590496
0.2918707275805892
0.3023136079735052
0.3124086461950675
0.1955036330793636
0.1909015716310041
0.1891196799066937
0.1873419226144084
0.1856940176245106
0.1860210064861916
0.1901313489223819
0.1983570972994911
0.2091657384502266
0.2210865152592807
0.2344822184509809
0.2483903439140993
0.2610857314841167
0.2731173191419361
0.2853428480709048
0.2979223108832591
0.3105271106318648
0.3236699857068586
0.3372013323073492
0.1927448423967024
0.1894286927456888
0.1884881432121572
0.187275608582104
0.1871625130893142
0.1891461193503065
0.19463679804316
0.2041229068383257
0.2158885766345996
0.2290932274618874
0.2436815995570952
0.2584733938696618
0.2725777348639239
0.2863560740529658
0.3004371104078233
0.3159640230790739
0.3319298065652132
0.348753002517721
0.3687469959234645
0.1907046269145652
0.1880546829422414
0.1883222871856469
0.1879281036536957
0.1890882385899588
0.1926767887602384
0.1996682957416272
0.2102249518696063
0.2223825283329082
0.2369319882032246
0.252401713026102
0.2686591511687663
0.2849776243880532
0.3008041359874414
0.3171274267894861
0.3350043080409178
0.3552689725593344
0.378715940679692
0.4085055462416355
0.189533262520881
0.1871813675157982
0.1885854070098921
0.1889893200354491
0.1912082985446219
0.1959695474992343
0.204612851555835
0.2167717415189182
0.2300056335799167
0.2450501859212379
0.2610773633430031
0.2791113798625061
0.2974351230722644
0.3154409306816744
0.3350945578220628
0.3564307273312525
0.3817474810521755
0.4147324259471922
0.4537762390722267
0.1889761336569662
0.1871034734286181
0.1894759213749211
0.1908589212221191
0.1937488227789293
0.1998994785362353
0.2098417756956102
0.2227724472388204
0.2373837393005924
0.2529596332177031
0.2700274564422455
0.2899728920271875
0.3102445940222996
0.331171456297652
0.3540278342715368
0.3801651791065139
0.4135181777459613
0.4589703816916142
0.5002719711891306
0.1885105514522728
0.1872402799662878
0.1907669467249794
0.1933372987538959
0.1970370412257643
0.2038944383125967
0.2150132703260014
0.2289182949160329
0.244142607840808
0.260523350595808
0.2792143560741093
0.3006268842438502
0.3232795089848862
0.3473799710681243
0.3736114263825411
0.406689987471714
0.451160104237774
0.5068057479575622
0.5364985808641788
0.1882721139153264
0.1875757766195608
0.1919241897128102
0.195325256080525
0.2003514239690554
0.2083771492875272
0.2201230266658117
0.2347630018812865
0.2506386221682506
0.2679540314432463
0.288582645677348
0.3119247188335279
0.3372897047963606
0.3647300146336812
0.3953594181725424
0.4363071587695749
0.4948115363256805
0.5533513134412746
0.5594015655132201
0.1877976589988185
0.1884641543262055
0.1936562046893896
0.1977790681360579
0.2039955202908968
0.2135598764867835
0.2260498432163609
0.2406128763952029
0.2566460596032169
0.2751775235424928
0.2979521054714842
0.3239521052850742
0.3517139920355684
0.3829268193330293
0.4200946561577399
0.4708385886983672
0.5407761121135137
0.5969838376564998
0.5605152941812571
0.1876685399519299
0.1893506231787675
0.1957950605455752
0.2008885560925321
0.2080940380825116
0.2184057023452685
0.2316014272503949
0.2464148238412549
0.2627663446787871
0.2824806196811762
0.3068570892188728
0.3352488472120234
0.3656409996412686
0.4006349987823447
0.4443916794581336
0.5088922712284933
0.5912631101750147
0.6413780726595587
0.524076850359474
0.1878731717267823
0.1899885731835821
0.1979652441766237
0.2042361007904264
0.2117779328594387
0.2226035913378538
0.2362811940216303
0.2514541927172733
0.2688477423893016
0.2899048184422038
0.3159968086663244
0.3466918185988374
0.3805899799869051
0.4198482847373007
0.4733452631276392
0.5523732375272831
0.6411613681512902
0.6513501203573666
0.477162680476027
0.1884748985021329
0.1913493144190142
0.2002668965140348
0.207541283484532
0.2156661219635484
0.2267279958707362
0.2402735716613409
0.2554861754399897
0.2739323919939068
0.2969865398409566
0.3250817948263655
0.3577409964331829
0.3953136559235009
0.4402219674181494
0.5055900396177012
0.5984818708281798
0.6824794564296429
0.63484094443566
0.4385384015478945
0.1893633467841285
0.1930982815642513
0.2027387625366705
0.2105335962385303
0.2196872358891003
0.2309422445980228
0.2439695679385689
0.2593509352616832
0.2787999205674039
0.3038645402438202
0.3343660066262526
0.3691023362593789
0.4097772298571772
0.4632168428356131
0.5399506724545419
0.6394439870767906
0.710521195306287
0.6245804161306346
0.3988535914429404
0.1900094080188112
0.1942047387038781
0.2050598606855444
0.2138939147711067
0.2237267675481385
0.2349340480873355
0.2479778589475215
0.2638231738027803
0.2838847422532172
0.3102938450393502
0.342767822145763
0.3801123400824835
0.423281336301685
0.4847059167786752
0.5733032837357487
0.6752687083973289
0.7113761367270642
0.5895833132213318
0.3612630908178696
0.1910158168744271
0.1956635613845757
0.2075160460271511
0.2173076942313063
0.2274897193857299
0.2386800374785254
0.2522106571357884
0.2683055336297263
0.2888093962002251
0.3160138666455663
0.3506353771712928
0.3911062126673623
0.4376813681104726
0.5044148247955158
0.603072542015441
0.7084651329729156
0.7137136369244574
0.5564945240639381
0.3300162958556036
0.1921197716641913
0.1974492731179439
0.2101889576684558
0.2202924732585924
0.2307116059586605
0.2423461703865649
0.2559370486890113
0.2720798539390379
0.2932576425550955
0.3214104740995211
0.3582253797961066
0.4009009218978407
0.4529532342031459
0.5276055041816122
0.6366517172390455
0.7443092222621089
0.7287422436146305
0.5410727238605608
0.3099281295479984
0.1930662546345596
0.1992790047873807
0.2126751110562111
0.2228121844147554
0.2336510817988715
0.2456494783548793
0.2589897652769961
0.275528066094274
0.2974552359146097
0.3268317448154431
0.3642831268391973
0.4091594766625133
0.4679573679315935
0.5497278524956705
0.6648330954617531
0.7631795476273454
0.7268852780934457
0.5241428957696489
0.2965213404998251
0.1943197300584907
0.2015802499837417
0.2151846723886182
0.225173219934042
0.2360476455668719
0.2482156431290402
0.261648879479366
0.2789128546326945
0.3011703224753024
0.3315707241930524
0.3705349815815825
0.4191955752256146
0.4839416450955964
0.5686603595729431
0.6875799472134779
0.7627550775227852
0.6991169252073617
0.4978411082666394
0.2830708265445087
0.1955753920904651
0.2036816491350151
0.2176002994656386
0.2276288585255875
0.2384096464032726
0.2504396000340251
0.2638969319255898
0.282238543056273
0.3047920054126272
0.3355058950509068
0.3762238260958419
0.4276440126973935
0.4951604830531107
0.5867016573272741
0.7133324699953452
0.7637911545374816
0.6727276981638693
0.4727629171003443
0.2710497132179341
0.1968929267245797
0.2055421263679768
0.2203355133502292
0.2302598917922562
0.240942955275987
0.2528975764897234
0.2664083908258463
0.2851447603605446
0.3084455146566383
0.3399785425127942
0.3818515226342097
0.4348626473021847
0.5046419521235076
0.6062695358020798
0.7383284387412519
0.773954688939095
0.6666485477787429
0.4575410629289765
0.260959463038472
0.1987451103304539
0.2075893230357213
0.2233393565682733
0.2331939559970701
0.2434503005885223
0.2552868387521348
0.2688783227575569
0.2871189092391644
0.3110634748012229
0.3442452242848857
0.3878828364076728
0.4431819625027489
0.5164638244393325
0.6253809881713174
0.7586196269113703
0.7889319354684601
0.6677329721656262
0.4465719757988456
0.2558132050315271
0.2003183170449786
0.2092987823933165
0.2254645233856317
0.2356943127649096
0.2457180400229568
0.2573296634110308
0.2710647974429593
0.2889102030009464
0.3132406696578411
0.3473331332877666
0.3916931263414001
0.4499260532575204
0.5260378491775868
0.6407853513107425
0.7731482806814395
0.7982780598041428
0.670342881117219
0.4384915851540578
0.2502195189127201
0.2016031330038917
0.210625031671384
0.2270452176957534
0.2378516609263211
0.2481313756083135
0.2594494242444508
0.273031202056593
0.2909020098569012
0.3160419380249342
0.3506350732403444
0.3954551083121648
0.4561061825579789
0.5328651133521375
0.6517856377495924
0.7849274894329992
0.8071001902878197
0.6736778951363755
0.432469336449193
0.2442656549956055
0.2029285809843358
0.21217012306165
0.2289725945482874
0.2402044594456053
0.2506720569384501
0.2615648994178192
0.2747469867599803
0.292936372892228
0.3189899738436194
0.353908718249159
0.4001078113838882
0.4616357554498765
0.5384899905500617
0.6623043595932373
0.7992032749226616
0.8155275297444508
0.6716334697924229
0.4286830770512756
0.2421820843458386
0.2042467593530375
0.2139079896729498
0.2309836786329789
0.2424005069858236
0.2523641326121668
0.2635177341444991
0.2766459341425649
0.2947194714027539
0.3212898837734816
0.35648821706672
0.4028980636368857
0.4655409216465919
0.5456477953180461
0.6732420600770451
0.810538336686756
0.8206779106170143
0.6700782522505014
0.4274566287100352
0.2420764199077703