/*--------------------------------*- C++ -*----------------------------------*\
| =========                 |                                                 |
| \\      /  F ield         | OpenFOAM: The Open Source CFD Toolbox           |
|  \\    /   O peration     | Version:  2112                                  |
|   \\  /    A nd           | Website:  www.openfoam.com                      |
|    \\/     M anipulation  |                                                 |
\*---------------------------------------------------------------------------*/
FoamFile
{
    version     2.0;
    format      ascii;
    arch        "LSB;label=32;scalar=64";
    class       volSymmTensorField;
    location    "0.0062";
    object      tauij_LES;
}
// * * * * * * * * * * * * * * * * * * * * * * * * * * * * * * * * * * * * * // 
 
dimensions      [0 2 -2 0 0 0 0];
 
internalField   nonuniform List<symmTensor> 
13597
(
( 0.1669102530211987 0.0357430934708893 -0.0137457913935383 0.0799408811904566 -0.0445689140005902 0.1221267335094902 )
( 0.1692337567804268 0.0380127301227308 -0.016917855777411 0.0781047384257212 -0.042770597214664 0.1164906845737176 )
( 0.1745810205664922 0.0409472174835682 -0.0216684129885614 0.0736774989947902 -0.0376175641543079 0.1041807875340049 )
( 0.183081816614857 0.0438592916534445 -0.0258913301214369 0.0688404060042065 -0.0307030978689976 0.0912914029722409 )
( 0.1912887523850652 0.0450388487874794 -0.0275683925717715 0.064685388455024 -0.0244024125649997 0.084038412774006 )
( 0.197598487306473 0.0445200236672543 -0.026262297255499 0.0605156746794896 -0.0180604089785736 0.0807964354060239 )
( 0.2029836817171673 0.0429511114533191 -0.0235195890220047 0.0564602853652651 -0.0114160914141314 0.0790448411574663 )
( 0.208060645697766 0.040320705100898 -0.0193770844433396 0.0526342472644937 -0.0044062182330453 0.0791090787625999 )
( 0.2124919999413542 0.0367341748869697 -0.0139639284516171 0.0496604595773409 0.0027157949686879 0.0806721237019583 )
( 0.2152432000987526 0.032523375468758 -0.0081686006918073 0.0478294211401079 0.0093947938389086 0.0835491648980716 )
( 0.2173035136644082 0.0279982549097967 -0.0015353227051048 0.0474073864936137 0.0163254813904172 0.0885557457477924 )
( 0.2191992798201469 0.023484595432462 0.0046167733149255 0.0486101040377439 0.0226136301991345 0.0941857579864193 )
( 0.2196974650048509 0.0188753656009629 0.0103043481999993 0.050765612274604 0.0277678973173645 0.0996965755018904 )
( 0.219156025000772 0.0142062757253003 0.0154316721071318 0.0544547078422564 0.03233469548765 0.1053505754551056 )
( 0.2178416790526059 0.0099443659048065 0.0190321091319827 0.0595230680423963 0.0358326115821641 0.1107391160538899 )
( 0.2158675201553511 0.0060631465710319 0.0222201067373742 0.0651350978439751 0.0383902516201199 0.1159683239755264 )
( 0.2138449588187004 0.0024453390212348 0.0250286432582009 0.071094198240078 0.0402610455470539 0.1201397690989538 )
( 0.2108030837965825 -0.0001812130157408 0.0254750523938001 0.0769880864499475 0.0416433975933335 0.1230601720198563 )
( 0.2076951771688193 -0.0022935978569012 0.0240396694893292 0.0824966829166537 0.0426206388805986 0.1249925830780684 )
( 0.1653835032259537 0.0407254793070943 -0.0172812492274617 0.0774858503273783 -0.045173959031397 0.1416673316193247 )
( 0.1671551158120167 0.0437949160722683 -0.0198858092948048 0.0740005476402252 -0.0423859325287892 0.137306949647736 )
( 0.1713884133537571 0.0488998846192047 -0.0223485824179908 0.0672151413604433 -0.0357302423428326 0.1250089132351172 )
( 0.1780154432952626 0.0536181282456272 -0.0224256341525807 0.0618663110326992 -0.0278364421918924 0.1152011894048732 )
( 0.1827448913192962 0.0551387887821495 -0.0198754536573739 0.0576027499905035 -0.0213601915546926 0.1116536197070802 )
( 0.1856559237717565 0.0548787442751626 -0.0145265085700516 0.0538976332929294 -0.0145429337246309 0.1103502524272046 )
( 0.1878096636085146 0.0532810042969866 -0.0082375950851855 0.0512229425659784 -0.0076325506003346 0.1102948664374999 )
( 0.188722104633418 0.050625609351912 -0.0009392968557607 0.0497679675006757 -0.0010734787875556 0.1124362102541982 )
( 0.1889989281623272 0.0472608746625372 0.0072511660773308 0.0496401899953296 0.0055219587551929 0.1156210575538401 )
( 0.1870881810181804 0.042789342126471 0.0147716638545516 0.0510365934174024 0.0115117704692782 0.1193606088246338 )
( 0.1836560943639761 0.0377556266314314 0.0215080102456931 0.0543323353220442 0.0173865176328213 0.1246870100800936 )
( 0.1800232681068201 0.0324095730712946 0.0266473857682353 0.0592548238882223 0.0226827772939412 0.1300748651747219 )
( 0.1751264208876493 0.0270947007594058 0.0295287503894554 0.0648982995601393 0.0268080243422226 0.1350623337278759 )
( 0.1705399083963319 0.021980114881916 0.0299758192235006 0.0712948910839674 0.030162435546071 0.1397289646501501 )
( 0.1674602631155476 0.0172335961595882 0.028561743502274 0.0781872948779714 0.0328165405515073 0.1436489560667991 )
( 0.1640362241778497 0.013219807973814 0.0258279639119771 0.0847661666083051 0.035137835327137 0.147232145218896 )
( 0.1611355115677948 0.0097499222937826 0.0222367768907639 0.090154064024269 0.0366622626420015 0.1497663804612967 )
( 0.1591683018515135 0.007049105372826 0.0166692930050698 0.0948931661545024 0.0376440950259432 0.1518120838405477 )
( 0.1577262681514785 0.0051478970031453 0.0100825011069918 0.0991628090795934 0.0385700276845497 0.1541507389365382 )
( 0.1593826412956496 0.0431235474788857 -0.0176052004107608 0.075891102124194 -0.0413754715359695 0.1548262664071925 )
( 0.1595115157997551 0.046760936416555 -0.0177352339734354 0.0721933244534829 -0.037418770346368 0.1507941441551847 )
( 0.1609857412267692 0.0528522926833604 -0.0149762596627368 0.0651102141904257 -0.0300948748246107 0.1401501522480256 )
( 0.1631134052728022 0.0572154786903303 -0.0095138771947041 0.0602293675906028 -0.0223467278087616 0.1337193261069423 )
( 0.1629038453917699 0.0573195611449954 -0.0029611948414344 0.057258260940162 -0.0163245658676542 0.1336669088170079 )
( 0.1622856280799738 0.0551533759480341 0.0048864360516344 0.0551262813542975 -0.0102446389334083 0.1351796461106063 )
( 0.1602985143483591 0.051249335925198 0.0127171253321909 0.0543451038538088 -0.003969707800847 0.1372170045392231 )
( 0.1567662827675502 0.0463572699586006 0.019892420512611 0.055367930182659 0.0019827984159996 0.1410065140179787 )
( 0.1534483084938313 0.0408075148632037 0.0256220209962651 0.057850616139298 0.0078169716407162 0.1452860142902394 )
( 0.1500615973275448 0.0342566559689311 0.0292349063198839 0.0617863138893656 0.0131856043646651 0.1497517599993055 )
( 0.1462284817686105 0.027523477855123 0.0301148986380706 0.0670482328897395 0.0177041765121783 0.1543180683423085 )
( 0.143255696368947 0.0211481199004864 0.0279126208449043 0.073334942473987 0.021911417129017 0.1584093822877288 )
( 0.1409265088247751 0.0150976812748454 0.0223782309507644 0.0802230841411252 0.0255903010072659 0.1615446989054853 )
( 0.1395917414432898 0.0099953099419836 0.0149611273526614 0.0866033816453158 0.0281888743392052 0.1636910228001269 )
( 0.1400086618462226 0.006158287206493 0.0073460208867154 0.0918234649248814 0.0298586342107635 0.1652138894410313 )
( 0.1406734405163107 0.0033498353599099 -0.000774318616459 0.0961396949059801 0.031112939881655 0.1665632477178473 )
( 0.1418033672841362 0.0013212516291343 -0.0088215727231894 0.0992504044981244 0.0314762943154793 0.1677120248930331 )
( 0.1441071504971394 6.9344198036562295e-06 -0.0172897268482684 0.1013118047418674 0.0309895485768656 0.1686765732690349 )
( 0.1469332744325386 -0.000528523095057 -0.0259596437472676 0.1028340346296071 0.0299061668715981 0.1697032536583486 )
( 0.1507387331983439 0.04395575026334 -0.0126030699933281 0.0771001801090107 -0.0346610477453713 0.1610186632143881 )
( 0.1488583625723964 0.0480503122467095 -0.0090376834324851 0.074387670659021 -0.0303457950894002 0.1574497257821783 )
( 0.1476260253694937 0.0528579551466296 -0.0017827324765604 0.0679608082494053 -0.0242058065292618 0.1508160962669668 )
( 0.146748898729494 0.0544206883756316 0.0072195624563007 0.063813574187478 -0.0175976778493494 0.1491836908006606 )
( 0.1443462077312842 0.0518131159299298 0.0153607093656039 0.0623080238323817 -0.0116769367413423 0.1524000472971159 )
( 0.1416797212507732 0.0469380861724822 0.0225190809600766 0.0616948355513871 -0.0058535638011508 0.1564664919506822 )
( 0.1383278363510823 0.0405598352211614 0.0279820201530351 0.0624022143680257 5.737089719913967e-05 0.1609116624777554 )
( 0.1350838662502494 0.0335586939386168 0.0309759499377963 0.0649528363404024 0.005971014110122 0.1664163062365103 )
( 0.1325926469396027 0.0265669297131751 0.0309208670797059 0.0688190239144684 0.011335203549944 0.1708694761697965 )
( 0.1310807122459188 0.0200698123628052 0.0279917022625287 0.0736535999124036 0.0164409081001925 0.1743330166341564 )
( 0.1301399053884112 0.0137946420449508 0.0217127055017965 0.079122253577567 0.0208785588263803 0.1764888426206688 )
( 0.1310289075027312 0.0085322765753098 0.0129746283262827 0.0846701708459918 0.0247092505501715 0.1774544568631273 )
( 0.1331535326826217 0.0045272877986594 0.0023787413684955 0.0895504775861035 0.0276987879652639 0.1774141498348966 )
( 0.1363183035219169 0.001789493006211 -0.008318896226301 0.0937044546942984 0.0296398372026027 0.1777900670596466 )
( 0.1401050639400449 0.0007868815166631 -0.017823870170453 0.096394016985294 0.0303678205450007 0.1786189739917056 )
( 0.14383015320815 0.0006571906703669 -0.0264307310467005 0.0980791667896974 0.029831515703499 0.1792863347634413 )
( 0.1480350432817208 0.0010802823532654 -0.0342955987667556 0.0990720322730888 0.0285089560007623 0.1800922776403017 )
( 0.1529473785400297 0.0023552232827944 -0.042308297801681 0.0994040229569014 0.0262783991318424 0.1815421374084642 )
( 0.158299384677977 0.0045555258759883 -0.0506346274929668 0.09936217606054 0.0225814281485208 0.1834260249618798 )
( 0.1422085608857293 0.0448754651645833 -0.0040837730594747 0.0818526281208247 -0.0276108768078585 0.1634598012364207 )
( 0.1393027715988112 0.0477039896478215 0.0023730202517878 0.0789269908370626 -0.0235490586726398 0.1607863631119799 )
( 0.136992511785442 0.0499474349543715 0.0113962684973018 0.073031623007919 -0.0184996875476222 0.1596171032620309 )
( 0.1347008752631816 0.0481497424011265 0.0206560361275068 0.0697776809068803 -0.0119185364550113 0.164295886109686 )
( 0.1312869317827085 0.0426597095345081 0.0269040979948363 0.0691173753598236 -0.0055634995835561 0.1705784082923203 )
( 0.1277866233260003 0.0363232323659369 0.0302506819458964 0.0696457811833918 0.0011162346917259 0.1770299655296189 )
( 0.1252529227734389 0.0291080158092236 0.0309515358307361 0.0715373399820641 0.0076158938950228 0.1830440736920734 )
( 0.1233492150261007 0.0219996906879261 0.0281634201013949 0.0751452179692302 0.0142729256279775 0.1879848249269389 )
( 0.1220496528908955 0.0160431761685576 0.0227064647198552 0.0793599236138791 0.0203937611875047 0.1911812508393188 )
( 0.1224596321755836 0.0113891729833213 0.0148229462620972 0.0837519719100008 0.025529444370153 0.1925341788712999 )
( 0.1247026361258944 0.0076296037024455 0.0046369047564671 0.0882452452857769 0.0299356694638656 0.1929151319224866 )
( 0.1288502696625838 0.0051186628748508 -0.0066438393090184 0.0922678056992743 0.0330678315673096 0.1929420976036774 )
( 0.1340539166931572 0.0044704905863101 -0.0184955026453463 0.0951280730854227 0.0348022721597715 0.1934708985874313 )
( 0.1401467594269554 0.0054687553257078 -0.0292631125730938 0.097084123909357 0.0347139796279058 0.1949538676876592 )
( 0.1461510523462716 0.0077303175107947 -0.0383537971324112 0.0980678227278026 0.0332116210726462 0.1972410164410842 )
( 0.1518140874972626 0.0107993209180093 -0.0463700198616741 0.0984107533479819 0.0302365693722976 0.1998523947075053 )
( 0.1574960276687352 0.0144597555842772 -0.0535185066437576 0.0983564826242316 0.0264104797789706 0.2028052045322939 )
( 0.1634694357352708 0.018729324650359 -0.0605282852317107 0.0979290335792471 0.021759700557045 0.2064853081402437 )
( 0.1702032948660337 0.0239071621711123 -0.0674383743280546 0.0972902266690689 0.0151758411341122 0.2105118358486329 )
( 0.134891714569375 0.0454872284154882 0.0043939178716762 0.088249099790397 -0.0206984579936685 0.1653237983341593 )
( 0.1308233082622347 0.0467514844167198 0.0116198679543141 0.0848029099996263 -0.0169049571508902 0.1655115597188424 )
( 0.1273928816685222 0.0458389205633075 0.0199032493757581 0.0787874415196889 -0.011781730223458 0.1697374329311372 )
( 0.1241978283696441 0.0410116562286456 0.0263631162255159 0.0762878352042168 -0.0043649695668056 0.17943397920078 )
( 0.1205442786799871 0.0340396950843683 0.0287852611079752 0.0762166902229079 0.00322841485847 0.1878531209798615 )
( 0.1176754447025291 0.0273639470507262 0.0278972720322507 0.0777612940251118 0.0111474146017205 0.1952089444092852 )
( 0.1152931770753832 0.0211639320697397 0.0242534919906993 0.080606537155735 0.0187840086109873 0.201111657891161 )
( 0.1140287410939782 0.0158947083113881 0.0171286729687318 0.0848313248091541 0.0264738796789301 0.2050828459175457 )
( 0.1146237415601824 0.0121226810810338 0.0081223298973697 0.089294999692698 0.0336158267146009 0.2080177320774475 )
( 0.1170699998181009 0.0100075510481842 -0.0019984513037641 0.0932686891375135 0.0389731339525598 0.2096502397891065 )
( 0.1216539487563772 0.0097994295647545 -0.0127554122272653 0.0964073970093579 0.0418561168864575 0.2102163635692176 )
( 0.1278368358318308 0.0112418457351544 -0.0243537584693183 0.0985992410743855 0.0424112131579447 0.2115331857578426 )
( 0.1350609719834404 0.0142266838604394 -0.0355478025496936 0.1001542828958842 0.0416303256373508 0.2143819621791898 )
( 0.1425376149496659 0.0187083403803017 -0.0447322724405925 0.1005846492144973 0.0383816122956923 0.2171218329040275 )
( 0.1496004278731073 0.0237786909436869 -0.0523155918328515 0.1006843872163416 0.0337562073643574 0.2210615153715694 )
( 0.1563012635955493 0.0293211729634094 -0.0586756350194539 0.1006525832714424 0.0285753840802493 0.2254965469589696 )
( 0.1625422480845029 0.0354423638643915 -0.0640998812662981 0.1003307421737411 0.0224914659999541 0.2299029799025536 )
( 0.1687918496067312 0.0419268371652676 -0.0689482397808513 0.099871189855678 0.0154516467868844 0.2339447543357312 )
( 0.1760877169621954 0.049139891263181 -0.0736520427171164 0.0993755362712449 0.0068049885629814 0.2380668274517909 )
( 0.1270512748334774 0.0455601606782194 0.0106372723209649 0.0947460922183108 -0.0141006143700948 0.1693501961918339 )
( 0.1223771005531564 0.0452106728418891 0.0167103266372943 0.090229284813535 -0.0100556227994751 0.1737718607050365 )
( 0.1183778009647386 0.0412765649406897 0.0228777195664811 0.0841227854002693 -0.0038422693353002 0.1829778773882648 )
( 0.113824251253024 0.0346199164094505 0.0255185636565911 0.0826789162320277 0.004896100268274 0.1947149506992386 )
( 0.1098873130642031 0.0279627829194413 0.0240270221268507 0.0836446508187633 0.0140789248505139 0.20375893172969 )
( 0.1070680565748714 0.0216732820273201 0.0195736527609765 0.0864414059068419 0.023482693613563 0.2112847745058206 )
( 0.1049515106611602 0.0169745617841887 0.0123526594248787 0.0900571618839325 0.0323029471535062 0.2168273484481362 )
( 0.1050625521063554 0.0143545888570785 0.0036469051446648 0.0943678265541034 0.0401110660902917 0.2207331421558375 )
( 0.1077904455588005 0.0137082396577153 -0.0059490544208973 0.098892804474532 0.0468483131673142 0.2241051256135627 )
( 0.1124915030751418 0.0148556038866325 -0.0159969795200715 0.1020914937063107 0.0509139479415614 0.2265561433488053 )
( 0.1188947821008713 0.0178524310217051 -0.0260234023235927 0.1042169514757038 0.0516858609688419 0.2283100379043896 )
( 0.1267012381985321 0.0226829093781375 -0.0361834008183432 0.1053214621490911 0.0492785205977402 0.2314080057304201 )
( 0.1350741097486042 0.0287705449199235 -0.0451403638116742 0.1056196332316646 0.0448007324165021 0.2355489325091103 )
( 0.1430949804563509 0.0356758279371669 -0.0522374228116126 0.1053927433601005 0.0385177477492077 0.2393263862461185 )
( 0.1509162415102055 0.0427899181116864 -0.0581143554721363 0.1053752537081012 0.0311948310969657 0.2437922729282474 )
( 0.1580068650215116 0.050098082858134 -0.0626871269503246 0.1054764378643542 0.0240646989862641 0.248184006812883 )
( 0.1647636743358611 0.0576352089812311 -0.0663875941595194 0.105626525690875 0.0163888859346423 0.2518571079491665 )
( 0.1719409955817135 0.0656660039070238 -0.0696297913059909 0.1057561029441719 0.0076621866086774 0.2548972565781283 )
( 0.1801241374754914 0.0743193876428682 -0.0726083416826283 0.1059447098692885 -0.002028901245558 0.2574345597073863 )
( 0.1197534352769375 0.0453786972900606 0.013655028872902 0.1008854785799217 -0.0082799389465003 0.1760041428159856 )
( 0.1144265938791068 0.0431736350218215 0.0175422135224099 0.0955012105846996 -0.0032569169806797 0.1841382006779942 )
( 0.1093531021561881 0.0371231343743021 0.0210918384743353 0.0897508770258207 0.0048967029690152 0.1966085068278937 )
( 0.1041288395963762 0.0296769948020419 0.0205820078452569 0.0896171055040999 0.0154317238753562 0.2088693120537381 )
( 0.0995355341044542 0.0237609469372587 0.0161101423397105 0.0918652900113916 0.0263437560795942 0.218032129262918 )
( 0.0962710716903618 0.0196718806301988 0.0089128107201905 0.0952952646719345 0.0367688459784916 0.225181060291664 )
( 0.0960881343262325 0.017326027662978 0.0006807107662069 0.0996953866327253 0.0460944599391017 0.2310241210532154 )
( 0.0982234937740187 0.0168386642025377 -0.007643449989736 0.1044084683310337 0.0532705441805903 0.2359217952863007 )
( 0.1019420572912049 0.0190045027930245 -0.0162283500280942 0.1085231614912613 0.0579270552129545 0.2397882459054147 )
( 0.1084923946011773 0.0230679042295223 -0.0249874517489863 0.1107804845224592 0.0594451704572772 0.2427110237318216 )
( 0.1165907230963706 0.0287936759821713 -0.0336634031925145 0.1119729972396719 0.0576367503968608 0.2458860132337464 )
( 0.1257898013192099 0.0360332921863049 -0.041917447675914 0.1124308930872645 0.052357380662354 0.2498542876477359 )
( 0.1351463056198251 0.0443366648952342 -0.0485608997951401 0.1121551079911055 0.0441879997755899 0.2535210546902932 )
( 0.1439038767744859 0.0530710743870929 -0.0535540732483311 0.1121931875273057 0.0351717899212342 0.2570059437213061 )
( 0.1521409079690583 0.0615235908935953 -0.057805228408997 0.1126479799734264 0.0261959962823818 0.2606190509679125 )
( 0.159590057413208 0.0702096309357873 -0.0609063087326411 0.1133348649642249 0.0173375414971092 0.2637574074268252 )
( 0.1673582306749821 0.0790370282035455 -0.0633004925817207 0.1143591620802098 0.0083929967137583 0.2658733752099308 )
( 0.1759510395705084 0.0883533489687235 -0.0654050660687313 0.1154839894803008 -0.0011512662471454 0.2670057625626602 )
( 0.1855559825059888 0.0982172203684529 -0.0670962205260439 0.1167764162475875 -0.0111192211206018 0.2670482701767768 )
( 0.11209923615607 0.0449398322241679 0.013461459904678 0.1065136638972162 -0.0025921339575379 0.1837989543962702 )
( 0.1052212278553934 0.0411055175701453 0.014865479926557 0.1009183935228772 0.0039086530281578 0.1940375670927522 )
( 0.0990608857535027 0.0334950753998792 0.015664931100961 0.0957908544246579 0.0142052113039397 0.2079477740658073 )
( 0.0938189873636529 0.0264783701328705 0.0128710541178074 0.0968728516570078 0.026731158385776 0.2204488890054297 )
( 0.0897433674910714 0.0221602654090433 0.0071940575169745 0.1005365032379602 0.0390783435977438 0.2299797784217926 )
( 0.087469865522559 0.0201002369025504 -0.0002188952361244 0.1046202851853084 0.0494346707453141 0.2375528951619804 )
( 0.0887202894211309 0.0203029631507679 -0.0075730518992069 0.1091327771123344 0.057735670722929 0.2436808163818677 )
( 0.0923837429059236 0.0221909204658858 -0.0147299872626978 0.1139057554910253 0.0635593397944323 0.2488455644179042 )
( 0.0974445825342303 0.0262403499158734 -0.021826336181547 0.1174989538247024 0.0660740569283139 0.2533093147737745 )
( 0.1055953097569991 0.0327506312845578 -0.0286787827908874 0.1194002445010878 0.0649267168989866 0.2568636042546686 )
( 0.1151910546405727 0.0407678572649493 -0.0357648832849577 0.119767884189165 0.0594710574805703 0.2600952608901533 )
( 0.1250686958589155 0.0494774075631589 -0.0422456519508499 0.1198579551084193 0.0511227412689503 0.2640532415897201 )
( 0.1353992247262196 0.0593875038653546 -0.0473033250522795 0.1201328719629613 0.0402167757962662 0.2668007923033265 )
( 0.1452742855075626 0.0696594482852437 -0.051107461350453 0.1210360873742113 0.0292178430293542 0.2693347566587447 )
( 0.1543660595324076 0.0792855753953623 -0.0539428659137759 0.1224564695664771 0.0192932200970064 0.2717168158269341 )
( 0.1628518567807687 0.0891504045687623 -0.0559939620505575 0.1242690659774848 0.0092669302262399 0.273175298094119 )
( 0.1717839095735405 0.0992436071857349 -0.0574636881337953 0.1266156452366891 -0.0004319287107568 0.273046136181054 )
( 0.1821034857657789 0.1099027429748022 -0.0587896052716921 0.129215585005468 -0.0102052608436127 0.2715737006682277 )
( 0.1938188829774384 0.1212164239080039 -0.0599492714868519 0.131965332908885 -0.0199552501264828 0.2687905040931012 )
( 0.1043607287516143 0.0443934046931959 0.0108564327380054 0.1112576415626209 0.0040718605045633 0.1922772276669298 )
( 0.0962301978923516 0.0384650812028571 0.0105686561866202 0.1051728523773056 0.011978011829371 0.203512219166376 )
( 0.0888903439686662 0.0304677059549826 0.0092075671758003 0.1015053045618762 0.0243681717719259 0.2172512776155711 )
( 0.0836417305127456 0.0252093466525063 0.0052654547704903 0.1041919431667614 0.0381124034215936 0.2302158224403053 )
( 0.0807787862934686 0.0227601715366307 -0.0003030070152782 0.1085898486902637 0.0502007889505779 0.2404397108236139 )
( 0.0801036087411503 0.0222309630422548 -0.0063624199031845 0.1136621599821629 0.0600088506491748 0.2483174820190864 )
( 0.0822384981282891 0.0244174389311599 -0.0123675634540588 0.1187126101596264 0.0670132212966323 0.2542379760987591 )
( 0.0873132178233203 0.0286977948224758 -0.0181264968357173 0.1231722607146496 0.0714252245040331 0.2600190587597415 )
( 0.0941471098363642 0.0343866241516093 -0.0236151100964396 0.1262585916867827 0.0719869321171155 0.2650555338912319 )
( 0.1033941510671798 0.0424764882525088 -0.0288666186371811 0.1276626477354331 0.0675076649963781 0.2685242645049085 )
( 0.1145729582360444 0.0520750044519471 -0.0344128628367829 0.1279227675436429 0.0585982285895032 0.271098744015025 )
( 0.1256967357924336 0.0621949340949565 -0.0394118145811804 0.1283371571904926 0.047150438591891 0.2736589291447959 )
( 0.1367149216341863 0.0734078033944176 -0.043426161447174 0.1298150103239266 0.0345750623584095 0.2759538155141754 )
( 0.1474299393495544 0.0847254438922662 -0.0466118104803502 0.1319389544384305 0.0224149180932956 0.2775357706146011 )
( 0.1573807553637996 0.0956500441119496 -0.0484615285231273 0.1346662543678404 0.0113779371687217 0.2778573234584371 )
( 0.1671378758445194 0.1067912068684782 -0.0497248488947665 0.1381881646563686 0.0007925706372954 0.2770509362487182 )
( 0.177700880320268 0.1184709216074234 -0.050855781245218 0.1424457969809921 -0.0092039796938228 0.2746010689077802 )
( 0.190125670724103 0.1308482562872773 -0.0520325619034084 0.1468456108985863 -0.0187980744906336 0.2705220806128084 )
( 0.2045682980323293 0.1439166012020725 -0.0532970950572576 0.1510403052424536 -0.027955170173707 0.2649976063719835 )
( 0.0969464819853112 0.0428031769149115 0.0077111410367728 0.1144443094519592 0.0103160010127076 0.2002885964391771 )
( 0.0878267620765687 0.0361176665525625 0.0059211488383912 0.1086133577832645 0.019886454802996 0.2104769622652998 )
( 0.079669392465073 0.0287946978891019 0.003276956894682 0.1073259540505195 0.034647812636623 0.2250299890506387 )
( 0.0748803631799608 0.0249261174607951 -0.0006138312229313 0.1115969246999368 0.0483163995799283 0.2384733992915828 )
( 0.0728467219942573 0.0237470547107597 -0.0052669354294113 0.1166637707258087 0.0596792871734392 0.2491682785552793 )
( 0.0737758680040538 0.0252523109391676 -0.0099066410665052 0.1227129043638146 0.0687794055067357 0.2576431525737375 )
( 0.0776112175297356 0.0291618333467022 -0.0141858912939714 0.1284164662479893 0.0746606885267341 0.2640890628620102 )
( 0.0840062899092336 0.0346764548801638 -0.0182499220393071 0.1323023856990008 0.0773127066388182 0.2704310766481894 )
( 0.0926039599412579 0.041725890567014 -0.0223897680779352 0.1348758188681816 0.0750008495825801 0.2747355741106586 )
( 0.1023990141472154 0.0509216739764307 -0.0265524421044631 0.1360088142081486 0.0672560520388303 0.2775324502398499 )
( 0.1138240942080867 0.0617584625858279 -0.0308519603717914 0.1366473607196816 0.0556858256528269 0.2792230478453693 )
( 0.1264635344703274 0.0737296762250844 -0.0350201687134225 0.1380716076675654 0.0416877375780165 0.2803419006504046 )
( 0.1382334577653454 0.0860753211795199 -0.0382829089460432 0.1407682509229592 0.027834170252928 0.2814331195824461 )
( 0.1498373983402701 0.0984287766423155 -0.040917178548185 0.1445189379530556 0.0149745351525869 0.2811272426706346 )
( 0.1611918175695698 0.1110713013373864 -0.0426648283512729 0.1493336579602332 0.0031322208164505 0.2794324122100077 )
( 0.1725317794643158 0.1239920924696909 -0.043706370538736 0.1551821023937481 -0.0077795974919692 0.2762314769140286 )
( 0.1852359916804669 0.1376249795686552 -0.0448703286709453 0.1616386771505525 -0.0177896830574502 0.27166613061939 )
( 0.2000512810225783 0.1519327320417529 -0.0465325207645194 0.1678669946334486 -0.0268391501654514 0.2654950174548442 )
( 0.2178116687421525 0.1674638667108009 -0.0486016066804053 0.1737293792008452 -0.035293567539191 0.2576930135962959 )
( 0.0880407582641846 0.0403670949752647 0.0038820457993758 0.1168550971420232 0.0162198954672975 0.2053882887438942 )
( 0.0783934665747848 0.0340247389341258 0.0011065920558229 0.1121627822376034 0.0276667220752869 0.2146540758465233 )
( 0.0707223299450592 0.0277575291469564 -0.0013660115844739 0.1134091814703603 0.0439070270653378 0.2312682957746282 )
( 0.0669158736781234 0.0251963746420205 -0.0044514070772307 0.1187891881460268 0.057136269531739 0.2456920429428769 )
( 0.0663572066019544 0.0256346349425524 -0.0077461395117171 0.1249382650356302 0.0680028546939035 0.2565561590643572 )
( 0.0691095933776995 0.0287366752770301 -0.0108182090159014 0.1313154908519896 0.0758275907484462 0.2656337521121159 )
( 0.0745750349698112 0.0336252017581316 -0.0137726573865411 0.1365353552128947 0.0799725697302754 0.2730727295578651 )
( 0.0820997812141258 0.039979584168269 -0.0166093020007106 0.1405249338654945 0.0803630009249501 0.2788188863032761 )
( 0.0915728942292413 0.0482874776983012 -0.0195578257400478 0.1429440429119357 0.0750174056545481 0.2815204364990054 )
( 0.1019250604594904 0.058519212923335 -0.0225736413179876 0.1442781911030253 0.0647450441972421 0.2831995156930206 )
( 0.1138143190537781 0.0704193719428392 -0.0259967143764285 0.1460273295682928 0.0511280057067513 0.2840947991805712 )
( 0.1269381497890944 0.0837390552257236 -0.0296720941315164 0.1491074532512407 0.0355996090622318 0.2844341831632118 )
( 0.1397833166182626 0.0975981365953513 -0.0327016159252184 0.1534415160146261 0.0205495152100667 0.2834826868883237 )
( 0.1529626774479021 0.111944336820851 -0.0355183494288639 0.159350367531549 0.0067890957094156 0.2809208607347013 )
( 0.1660429231002261 0.1267626381307306 -0.0375659631467114 0.1670709997590518 -0.0054656655523909 0.2773420905879287 )
( 0.1791001526934735 0.1416051865019054 -0.0389721936364657 0.1756016345538506 -0.0161414171491145 0.2723433523072696 )
( 0.1936820093189142 0.157161985820442 -0.0406907574374206 0.1842593837551998 -0.0257642720858592 0.2660115309721328 )
( 0.2116886646683225 0.1741411161327939 -0.0431010697501832 0.1925320929941251 -0.0343558118086331 0.258234586703094 )
( 0.2340092284440446 0.1929240166330278 -0.0461384417211557 0.2002999761155521 -0.0419927984015718 0.2489971891566267 )
( 0.0788513014044115 0.0379294812353808 -0.000183881846202 0.1201399664689513 0.022578034973804 0.2081291720112934 )
( 0.0688750713083591 0.0316623307811666 -0.0026921721425676 0.1164394942350496 0.0353535348472437 0.2188267239008695 )
( 0.0625591459505425 0.0271355343414436 -0.0041372301803891 0.1192585805522749 0.051951955392391 0.2370228438170912 )
( 0.0603593707133729 0.0264353564502715 -0.0062411759251864 0.1256839265533646 0.0644299368123515 0.2517114162952128 )
( 0.0617167128721955 0.0281274145298601 -0.008364466657509 0.1323989066086494 0.0743076713882565 0.2633142031971667 )
( 0.0662723019071067 0.0322579843487799 -0.0100955730758822 0.1388531842484376 0.0809643439371653 0.2722738858328082 )
( 0.0728265952816358 0.0378239270833189 -0.0118441370403283 0.1441303436392248 0.083304238976026 0.2795682993802594 )
( 0.081023326477387 0.0449913852790132 -0.0134967790856459 0.1484876612239577 0.0811491134623692 0.2845988263480076 )
( 0.0909572618872944 0.05447428891329 -0.0152788793334514 0.1512063815633021 0.0735024637149073 0.2868819518219749 )
( 0.1020261412856294 0.0657019521940466 -0.0178140993554845 0.1529228250404507 0.0609705633545025 0.2875644112778264 )
( 0.1147752121173207 0.078776131431933 -0.0212247235589934 0.1562003328254596 0.0455037478581956 0.2869697112162621 )
( 0.1281790701230701 0.0932335705544105 -0.0247952562765058 0.1612368630810198 0.0289798540847706 0.2858755628526921 )
( 0.1420645574998025 0.1089817773069888 -0.0279814325661656 0.1681700705364041 0.012846141276796 0.2830531613519755 )
( 0.1566734747139951 0.1257484638389848 -0.0310577675718222 0.1772586563269262 -0.0016890577058819 0.2787122019140083 )
( 0.1706658972032163 0.1422581744260421 -0.0333002872800896 0.1879256291439115 -0.0135539686047449 0.2735192798829755 )
( 0.1854501073526291 0.1590315078645694 -0.035451172727812 0.1989449061395626 -0.0235745526045768 0.2670031093209924 )
( 0.2030047436710195 0.1775314029035327 -0.0382702954182067 0.2103037274380073 -0.0329229900790976 0.259501320655733 )