/*--------------------------------*- C++ -*----------------------------------*\
| =========                 |                                                 |
| \\      /  F ield         | OpenFOAM: The Open Source CFD Toolbox           |
|  \\    /   O peration     | Version:  2112                                  |
|   \\  /    A nd           | Website:  www.openfoam.com                      |
|    \\/     M anipulation  |                                                 |
\*---------------------------------------------------------------------------*/
FoamFile
{
    version     2.0;
    format      ascii;
    arch        "LSB;label=32;scalar=64";
    class       volVectorField;
    location    "0.0062";
    object      U_LES;
}
// * * * * * * * * * * * * * * * * * * * * * * * * * * * * * * * * * * * * * // 
 
dimensions      [0 1 -1 0 0 0 0];
 
internalField   nonuniform List<vector> 
13597
(
( 17.62333278237729 1.87844367997748 0.0992516123124302 )
( 17.630986004518196 1.9243676765452344 0.0948120530944442 )
( 17.65669778267862 2.0169240259707344 0.0865984661555891 )
( 17.694415765930703 2.1355846652876065 0.0761781591421938 )
( 17.727019913915473 2.234419466983271 0.069125274097177 )
( 17.750892550523027 2.313897650583927 0.0665909031580973 )
( 17.77631637614787 2.3909747512735504 0.0649888203438054 )
( 17.805297582517486 2.4715933297741715 0.0646512624865944 )
( 17.83638753170607 2.551762043037165 0.0657941009165757 )
( 17.86706858398734 2.630976147741748 0.0669027211175829 )
( 17.899819694400247 2.7184906067918653 0.0692875499182202 )
( 17.937350423412315 2.8063496248608284 0.0722866178972516 )
( 17.976864705457757 2.892204129111497 0.0752271519717136 )
( 18.01640171645044 2.9830968985788684 0.0785397161551546 )
( 18.055209621974896 3.077888817667817 0.081316378198456 )
( 18.09591065294869 3.1715928025895 0.0840510324755712 )
( 18.14040039138136 3.260869865502746 0.0866665661400536 )
( 18.18631189433793 3.3524765928467923 0.0869674418710644 )
( 18.23284527207923 3.4489057509582337 0.0859937281189982 )
( 17.51438119558725 1.91949274835915 0.0926063358681545 )
( 17.506209046230424 1.978214657779892 0.0866131171760199 )
( 17.509795900532612 2.099516604670827 0.0784234283599778 )
( 17.51582021985243 2.237279712369219 0.0711881727169236 )
( 17.51601253657588 2.340727921812489 0.0685334891620293 )
( 17.512386046241133 2.4345114094013867 0.0697561201519458 )
( 17.51158076028696 2.5278518812862045 0.0723349214267203 )
( 17.51069485914973 2.624083592112795 0.0761151935304639 )
( 17.513452939050584 2.72172568156621 0.0813155080632807 )
( 17.515182130876056 2.818233839123575 0.086194096148781 )
( 17.51611539705841 2.925421131261396 0.091278786448639 )
( 17.517301060487114 3.040539047405138 0.0961194309023891 )
( 17.51773704756195 3.1567815457839288 0.0994829454086601 )
( 17.52220644607591 3.277399182940208 0.1009131008808363 )
( 17.52937750909432 3.397079214257437 0.1012451850764019 )
( 17.537851799995007 3.5105371082462984 0.099553256790564 )
( 17.547521871421097 3.6153954068274574 0.0963404020483243 )
( 17.55867780157023 3.724433958242909 0.0911330397908301 )
( 17.575182117780837 3.833707100236652 0.0843928699656586 )
( 17.39290995527695 1.9489884728134463 0.0797339694640854 )
( 17.36144232512572 2.017180378113816 0.0746057360612621 )
( 17.335177386464647 2.155912314888391 0.0709082510891512 )
( 17.30474809422664 2.30364954640886 0.0691828886389048 )
( 17.271501911583883 2.4112559381167835 0.0707555725139438 )
( 17.24276270845348 2.516001592023432 0.0762693493674547 )
( 17.21601922513401 2.623088299550474 0.0828676631929603 )
( 17.182740110370148 2.730458978125236 0.0893618766646759 )
( 17.15436332889676 2.843351462960358 0.096504094576224 )
( 17.128822860995967 2.965449954701472 0.1025861226140667 )
( 17.10074122213925 3.0944107042941607 0.1065111605907177 )
( 17.07448815685895 3.234429071434788 0.1078152214682325 )
( 17.05079749262914 3.380456536343836 0.1056986163407699 )
( 17.030908025806475 3.5217303624523137 0.1006197920158604 )
( 17.01579301634616 3.652022626114639 0.0941885423173889 )
( 17.003767878682027 3.769169069350202 0.0860569341142103 )
( 16.990448671963417 3.87539061159869 0.0769850287319349 )
( 16.978143872294687 3.982698586449804 0.0667598874692392 )
( 16.97461726330324 4.094036129721996 0.0552687988684841 )
( 17.256755902723786 1.9659038178809616 0.0694286487595981 )
( 17.199217289378254 2.04224605205688 0.0669758844842998 )
( 17.14440739035048 2.1878497297495088 0.0693640817606529 )
( 17.08234686225522 2.340245240586297 0.0743773510702902 )
( 17.017582778662195 2.4549791671515218 0.0812062304537293 )
( 16.960134286665806 2.566518766283465 0.0906627449951765 )
( 16.9019988023007 2.6857319466660807 0.1001370402328133 )
( 16.84048364854529 2.807451044360648 0.1080146002683211 )
( 16.787967618337895 2.935724543393065 0.114005377660391 )
( 16.74025325534452 3.0757188997721827 0.1166476035748341 )
( 16.688806844746864 3.2256717714119723 0.1140228661349584 )
( 16.646001079869773 3.3833063696136643 0.107310404049067 )
( 16.60934138517918 3.541746943485834 0.0962000939994603 )
( 16.572046803115473 3.694486787696651 0.083471733223887 )
( 16.53661068494532 3.8271546880185694 0.070642469834232 )
( 16.503806778280985 3.9415813589893216 0.0575177225103 )
( 16.472320647809838 4.045970621637228 0.0450289387240868 )
( 16.439018236533553 4.151667531866622 0.0314473401828298 )
( 16.4098226603582 4.268703325329864 0.0160203417003816 )
( 17.113802425674862 1.9717359408086923 0.0638776009141529 )
( 17.03709489709013 2.055913282928162 0.065536889438359 )
( 16.95403573924703 2.208871267846116 0.074614278967439 )
( 16.861303889511845 2.361807151674117 0.0869021888140267 )
( 16.771101349744082 2.4802443472162774 0.0982194324350804 )
( 16.687923726354388 2.598694392194471 0.1088503237527605 )
( 16.6032908651476 2.728173138076448 0.1182437238699816 )
( 16.52052160392909 2.862001379816616 0.1233769190283959 )
( 16.44668645949142 2.999628834099019 0.1234303708175373 )
( 16.375924673765535 3.149862117890681 0.1177130290120092 )
( 16.30457985342017 3.3163386851548333 0.1061836322591915 )
( 16.240076245627076 3.487394287877365 0.0908494213783036 )
( 16.179686839412014 3.653834485203524 0.0725639595314017 )
( 16.118603896548464 3.810564810945148 0.0543449911923055 )
( 16.057629999445343 3.940238188953972 0.0375124810912089 )
( 15.997931231942925 4.05665086734482 0.0213720165009786 )
( 15.941372027790912 4.167737056111936 0.0062334515094526 )
( 15.885654331730668 4.278570944216102 -0.009164573078047 )
( 15.830606626239188 4.402676510347457 -0.0260481831184398 )
( 16.97241858233955 1.9669859399644407 0.0623003552385766 )
( 16.87488417295351 2.058126388509176 0.0699360930583705 )
( 16.762126942049104 2.2204924761443667 0.0853283151747423 )
( 16.644891205881645 2.373765205817897 0.1019512460195254 )
( 16.53629478768077 2.495242651640681 0.1151308147469367 )
( 16.435199570091598 2.620792130786945 0.1244980384098762 )
( 16.333598661869278 2.753983982604077 0.1293382336837729 )
( 16.23105147846092 2.893414581180066 0.1277156699725714 )
( 16.129888947745957 3.039775167217961 0.1198624774757859 )
( 16.03167754504864 3.204287974876716 0.1061904282301185 )
( 15.939717703168563 3.3791815542902786 0.0879067713990152 )
( 15.847636122630457 3.555003557109734 0.064966977420731 )
( 15.760357539098788 3.727303847202784 0.0423936976225938 )
( 15.676629455811868 3.883857016027694 0.0223934919854877 )
( 15.590456033931932 4.014693451305411 0.0037269652654849 )
( 15.510649792616714 4.1302090040812685 -0.0127714932243669 )
( 15.432439973853535 4.241698099730848 -0.0279221210004497 )
( 15.35407509527667 4.354275171403407 -0.0426065577538095 )
( 15.277091888218644 4.481458386721527 -0.0579608822768029 )
( 16.825385693835074 1.9547540799846643 0.0658502312412681 )
( 16.708360291196 2.053990516084035 0.0796823125797552 )
( 16.574459302037035 2.2219685548969164 0.0998736185334017 )
( 16.43881992723186 2.3737899328892897 0.1165127545149084 )
( 16.314603829946897 2.49719833809262 0.127310716133065 )
( 16.192483503367495 2.6252894895902203 0.1326226860987336 )
( 16.07115135096331 2.762909120884559 0.1302279734985689 )
( 15.949863927632329 2.908410662804291 0.1214483386178511 )
( 15.825235314115426 3.0604072846795227 0.1070172786329104 )
( 15.708473902208484 3.231087703111058 0.0879527372970342 )
( 15.593085022940151 3.411873137527231 0.0654649084587856 )
( 15.473277421518745 3.5936383007602704 0.0391779807992194 )
( 15.361962285749463 3.764912137204485 0.0154331886844382 )
( 15.255016940164989 3.91780202944671 -0.0045626552272077 )
( 15.146745678018954 4.052343392326177 -0.0229357456717549 )
( 15.045295016150895 4.165616247566693 -0.0379966885698986 )
( 14.947453565139654 4.274819928492339 -0.0512024892682805 )
( 14.848037831115796 4.392214649677832 -0.0640553949231342 )
( 14.750587270349849 4.522931305473776 -0.076689287945179 )
( 16.682413650597947 1.937637638520974 0.0731115321206915 )
( 16.54902149660766 2.040675692653814 0.0907413561234954 )
( 16.397709557888398 2.21004619145916 0.1129091730436902 )
( 16.24595088781389 2.360890595085736 0.1280313638653049 )
( 16.10343546915993 2.486798830655128 0.1344926314784914 )
( 15.962299371326424 2.61911646557666 0.1328077872048162 )
( 15.821472768552177 2.762320647849353 0.123679010344797 )
( 15.682289393875644 2.908620893631132 0.1093720811705748 )
( 15.535808716364135 3.0627529894135983 0.090235851464044 )
( 15.3975352047359 3.2396818806709526 0.0673961051754237 )
( 15.256613492879303 3.424960987040333 0.0429158921872561 )
( 15.115168777213166 3.61040329760065 0.016965508236917 )
( 14.981699343767634 3.781829966066459 -0.0059196489595875 )
( 14.848786913056507 3.928645468644021 -0.024934022961651 )
( 14.72488175902136 4.0561642375776366 -0.0413967113428837 )
( 14.60389235227724 4.169877484351721 -0.0545432870629369 )
( 14.485988792873163 4.283386551716472 -0.0655518163359858 )
( 14.369008924684614 4.407406377873109 -0.0757887326430403 )
( 14.254170192291069 4.543792469396621 -0.0851783976944986 )
( 16.544723015479384 1.9116262583589292 0.0817687882153171 )
( 16.39408133246179 2.0145765181526367 0.1005272091996249 )
( 16.225821827199848 2.1849517410124126 0.1215462170876135 )
( 16.06208452155515 2.335142978763071 0.1339806178211176 )
( 15.902424320430566 2.4665972709382133 0.1365036345080781 )
( 15.746827105743543 2.5998994167239866 0.1279826524683191 )
( 15.590700160309122 2.741555423242258 0.1136312819613667 )
( 15.43416561206921 2.8940425472014644 0.0960360129680222 )
( 15.270408550994924 3.054242915643536 0.0738220086011114 )
( 15.101600494114566 3.231591496541963 0.0489566023827886 )
( 14.936556641000186 3.419063045045989 0.023293527654987 )
( 14.777813992040256 3.6033152173171263 -0.000736800698358 )
( 14.6192664080522 3.7745631241008 -0.0219715334035768 )
( 14.466097799626128 3.9207015726820527 -0.0393543632031418 )
( 14.328231379944352 4.04415187820021 -0.0529947175966145 )
( 14.189394238783793 4.16088704006083 -0.0642059466674137 )
( 14.051851073749802 4.277547861134561 -0.072629325793195 )
( 13.916659558299676 4.404860259887248 -0.0796999047493087 )
( 13.781972442588769 4.547241279385625 -0.0857589915255166 )
( 16.408421705042517 1.8845836091069013 0.0913427071251831 )
( 16.24353117701567 1.99279140976956 0.1102309131320296 )
( 16.06221076094529 2.161761411169854 0.1284570923719694 )
( 15.88725215261269 2.3058096435277813 0.1362498997381487 )
( 15.715854775863807 2.4397393961708533 0.1325166988649087 )
( 15.54625412691924 2.5698734737924376 0.1204598255324205 )
( 15.37048454536676 2.706417990233989 0.1029038640757629 )
( 15.190102363911498 2.861173721166026 0.0821685387056697 )
( 15.010397297956 3.0230787146636606 0.0588981037695333 )
( 14.822725215307578 3.200925020359863 0.0331986410502559 )
( 14.638431270869456 3.394229204124368 0.0076633571630627 )
( 14.460993457409735 3.582016251880767 -0.0145856630931125 )
( 14.283837458650073 3.749648490252576 -0.0334923461172398 )
( 14.116914931846695 3.895850864570929 -0.048643563442979 )
( 13.959215371070908 4.020648435232098 -0.0592798265064394 )
( 13.799936174282571 4.137081962597557 -0.0673580940027796 )
( 13.640117704817376 4.254985937095031 -0.0731146733712254 )
( 13.484799848166846 4.38468809429132 -0.0779149095138011 )
( 13.332277029320048 4.534004470750055 -0.0823767834233219 )
( 16.281740821592155 1.8575164672276037 0.0993303884726517 )
( 16.109414558518598 1.9698384269897995 0.1170046659725368 )
( 15.910923893962156 2.135486824380099 0.1326816087856766 )
( 15.72607837372612 2.271360790225191 0.1350990089419642 )
( 15.542268770283274 2.401192471565152 0.1261432449357365 )
( 15.35499928116707 2.530559874370608 0.111657290057425 )
( 15.162276497262274 2.662767863086461 0.0924108379951807 )
( 14.965655367992682 2.811090747313847 0.0702106584285692 )
( 14.767339241847573 2.9775347834720485 0.0457428156057707 )
( 14.56554506113462 3.158466291080796 0.0197825034648354 )
( 14.362888825733233 3.352279249196496 -0.0042180954418061 )
( 14.161920414140802 3.5467938890564428 -0.0247950796351672 )
( 13.972599336855998 3.71245086068416 -0.0406857785470164 )
( 13.791664404550266 3.8584821108263103 -0.0528006344761152 )
( 13.610055422596396 3.986183893096503 -0.0611857703781657 )
( 13.427206284800596 4.102249052994456 -0.067000384628081 )
( 13.247339190434218 4.222789453608344 -0.0715530349178784 )
( 13.076602517816148 4.357261140354321 -0.0757093178122277 )
( 12.906941671134806 4.5151246324576775 -0.0791866112694153 )
( 16.16004437956873 1.8246204884474977 0.1056734904870226 )
( 15.978802022447544 1.938834050211614 0.1211246860228786 )
( 15.766864611743417 2.102774628198369 0.132661274425456 )
( 15.572561545838148 2.2303078396983333 0.1305163667644216 )
( 15.37607133633507 2.352538005702979 0.1192532305919214 )
( 15.172532107264631 2.4810885478371216 0.1022336997426125 )
( 14.969956816352015 2.617265028215697 0.0819750253566017 )
( 14.75909085834417 2.766297955229956 0.0593954079635245 )
( 14.5435432694631 2.933731210782864 0.0337544691930103 )
( 14.324821369815078 3.113578905756284 0.0089724200048791 )
( 14.104546497885572 3.3044074360473683 -0.0128977373163085 )
( 13.884395106765416 3.4951694032954 -0.0308016676633781 )
( 13.675259078469756 3.664774418023344 -0.0442055907082387 )
( 13.473968095718709 3.817823975058804 -0.0546364840845589 )
( 13.270278686196937 3.946751228281082 -0.0618063539103178 )
( 13.07089513789969 4.060796006538149 -0.0668656395154763 )
( 12.878481551182675 4.183853028158539 -0.0706991138018879 )
( 12.69290420477842 4.329175395773832 -0.0732660115739993 )
( 12.50671626526163 4.498275004446499 -0.0736215116844337 )
( 16.04153886176887 1.783789013781862 0.1094155693321576 )
( 15.85162824836482 1.898796988914302 0.1232678406193935 )
( 15.635310176230538 2.06057484793622 0.1307034905521487 )
( 15.429869488018293 2.186475506144287 0.1243351878511957 )
( 15.22316913732202 2.3080237680003584 0.1110826181761104 )
( 15.008550919381827 2.435491401064677 0.0930298816184891 )
( 14.792297096019192 2.571274820669901 0.0719690973106499 )
( 14.5638700915381 2.7174701248974005 0.0487059599554255 )
( 14.33142296772753 2.880207285347555 0.0235719627542615 )
( 14.09944277084823 3.062817161607747 0.0005426137103745 )
( 13.8604441066054 3.259600162568208 -0.0190929483356351 )
( 13.623339292493691 3.446944170711583 -0.0349924552289274 )
( 13.391022264678858 3.6172629844969126 -0.0469359879103333 )
( 13.163590752075608 3.77128409775546 -0.0561165239925003 )
( 12.946468719354035 3.8955281274192144 -0.0623470263503322 )
( 12.739606427601808 4.012080628399986 -0.0659399123596094 )
( 12.533952276382744 4.143187746621408 -0.0677417916991334 )
( 12.328870210590688 4.29747836327774 -0.067451897041598 )
( 12.118516164105728 4.481488205558789 -0.0638582476303218 )
( 15.93179619762144 1.7360213812106324 0.1115553115707644 )
( 15.739429802882784 1.8510311874494207 0.1227729324055642 )
( 15.514454118554868 2.011093751205333 0.12741969942647 )
( 15.298885058613202 2.136627885442617 0.1181038479736109 )
( 15.080415731672536 2.2580848892006853 0.1038602958576352 )
( 14.858231336160538 2.380755658820602 0.0856891320326288 )
( 14.628892365317212 2.512837216111937 0.0636187701517754 )
( 14.391066839585251 2.6573818842455075 0.0398012402145336 )
( 14.14167269930696 2.817534206354608 0.0159920272405895 )
( 13.889811460152904 3.001986446566195 -0.0058844929814675 )
( 13.631312484361814 3.202289247751848 -0.0243106486188949 )
( 13.372153019776023 3.395743554052104 -0.0384371440671135 )
( 13.121583864856955 3.5696087405423484 -0.0490376666775885 )
( 12.879823957726398 3.716043520433936 -0.0567347172440132 )
( 12.649977953873286 3.838117933907632 -0.0612303190672463 )
( 12.426303546307858 3.9644787681912894 -0.0628049228224932 )
( 12.203648275667875 4.110052603455172 -0.062330144510298 )
( 11.973115810805789 4.268877066258059 -0.059069924653639 )
( 11.729199022051043 4.459963495958301 -0.0532184803756351 )
( 15.833729671074666 1.687666045643387 0.1130928483615687 )
( 15.634510689646312 1.8036961592180207 0.1214766873042237 )
( 15.391127246810475 1.9637739276610675 0.1224343564023693 )
( 15.167344395148548 2.082010280099556 0.1117794792127628 )
( 14.943101495956338 2.1987240119306013 0.0976526158051906 )
( 14.714573026571555 2.3183993154893523 0.0789868389913953 )
( 14.47323901029829 2.447079073772846 0.0560326727586847 )
( 14.221281793814311 2.59321512047741 0.0319460526527824 )
( 13.959948891247354 2.7522895700536205 0.0100849080902407 )
( 13.690694828342512 2.9334043216536365 -0.009888121789751 )
( 13.41024141219367 3.1364083696675187 -0.0277139960323925 )
( 13.128401142877586 3.332451805359276 -0.0407731907402595 )
( 12.85916974749868 3.510357199303178 -0.0499944394274416 )
( 12.608426912900734 3.6551484588302143 -0.0560450969393828 )
( 12.368008243150308 3.779611769486613 -0.058471612901498 )
( 12.126325136441816 3.9138013943353327 -0.0581330970879538 )
( 11.876828651708731 4.067655395566256 -0.05542242387052 )
( 11.61567585688507 4.240243386426274 -0.0504237931295475 )
( 11.357101383491338 4.453361976181633 -0.0452010928705863 )
( 15.74286974016377 1.6408887860025851 0.1128234551066121 )
( 15.536298805533882 1.756235530718543 0.1190640940313637 )
( 15.281370861413077 1.91294823910543 0.1171514108041741 )
( 15.048941752198836 2.02169552794779 0.1056926820861353 )
( 14.818360965726756 2.129658278053028 0.0911332820251088 )
( 14.58090193685326 2.2536606828703407 0.0715071283988641 )
( 14.328908864457228 2.377943958087596 0.0488290994573733 )
( 14.05963804758784 2.517265767839383 0.0259925197089026 )
( 13.783932790982169 2.681666000707622 0.0050819348039875 )
( 13.498399744319482 2.8610821458806908 -0.0134018026337459 )
( 13.192686882290907 3.069525649372948 -0.0298826859799286 )
( 12.8875834322702 3.2718316712695312 -0.0424540850898991 )
( 12.609209633400816 3.4438109488010165 -0.050062449427784 )
( 12.353721949650934 3.5877401592861204 -0.0534297037577186 )
( 12.100171752668553 3.7196749850837847 -0.0543611290744996 )
( 11.836396595588928 3.86094474373192 -0.0526984269658155 )
( 11.556157171832412 4.021487752885242 -0.0477251964630408 )
( 11.270879736927103 4.215807553613646 -0.0437506166872025 )
( 11.027837536836843 4.4762211025289735 -0.040556193518885 )
( 15.65935209180464 1.59396277305465 0.1119928817865897 )
( 15.440802334307586 1.7048125341121438 0.1161127935399438 )
( 15.180189661797076 1.8591684456916144 0.1126944492739095 )
( 14.946241216781988 1.9624524623127109 0.1003386854168778 )
( 14.707530555856726 2.0657089468735497 0.0848078506572899 )
( 14.45563791827064 2.186987165547081 0.0646396145505595 )
( 14.190585557938917 2.3043858663291843 0.0424959020903459 )
( 13.915112977936356 2.441266990967369 0.0212975192526798 )
( 13.623100287322664 2.6091045328503606 0.0009172688313247 )
( 13.314362732361172 2.7847255578278687 -0.0167325626328342 )
( 12.99698399111349 2.9893413653142917 -0.0310492439276964 )
( 12.676369572296148 3.205843352067206 -0.0422879631644029 )
( 12.38636306546485 3.378477570963967 -0.0478745849831331 )
( 12.116767632758211 3.5184671710415305 -0.049209700015229 )
( 11.83981815655426 3.6577949949269937 -0.0497053830113585 )
( 11.543685036614416 3.8036476457113855 -0.0472255943847719 )
( 11.241240227010088 3.9795020292135215 -0.0430466882156988 )
( 10.961155090917234 4.208249226888447 -0.0413147835371812 )
( 10.751142605159789 4.522893829754016 -0.0370778888760519 )
( 15.578373408842506 1.5449995894346582 0.1108590909751056 )
( 15.352777870958969 1.651047876046217 0.1134753468631563 )
( 15.085618888285484 1.7994793004930998 0.108500473470911 )
( 14.851162914137008 1.898047593652165 0.0951582302947059 )
( 14.60626228820001 2.002162287883876 0.0787342020571158 )
( 14.34168560377736 2.1189409529318777 0.0585298388821035 )
( 14.066934856512542 2.226219928114278 0.0372276185827746 )
( 13.780360054265111 2.365637985201371 0.0171106434144571 )
( 13.47031961635118 2.5368258289882104 -0.0024035742438161 )
( 13.144159393277413 2.715302263244992 -0.0189627333993745 )
( 12.80768948029692 2.913159693671824 -0.0311924177461385 )
( 12.473281381531546 3.1196116465507453 -0.0401263496812974 )
( 12.171668007826542 3.297796485121886 -0.0443519842454457 )
( 11.879897210557 3.447176696458103 -0.0452575815016953 )
( 11.576323686386631 3.5848062616148137 -0.0448897268887992 )
( 11.25854172310868 3.738026141305864 -0.0419559707732168 )
( 10.945904850969969 3.9382591859207134 -0.0400210158828521 )
( 10.692147004678828 4.217550724262599 -0.0391324633875452 )
( 10.484346146601624 4.5774884738747295 -0.0339975027201687 )
( 15.503397461097466 1.4927138961655362 0.1087079847112176 )
( 15.274460721530954 1.593727818715348 0.1100044387384166 )
( 14.997447911883828 1.7326678617294609 0.1038067844749182 )
( 14.761999019526233 1.8300026946573784 0.0901883086975186 )
( 14.509495259118802 1.930786302634032 0.0729570683476157 )
( 14.231761044584658 2.0454951333475573 0.0526553390276997 )
( 13.957119594246436 2.1535620768940613 0.0326978639350879 )
( 13.656516670051632 2.2851088384929 0.0136310451678495 )
( 13.32527355472239 2.455166865497273 -0.0052058692164608 )
( 12.980192732846186 2.640765867645496 -0.0207858116580883 )
( 12.620408916557034 2.841809500640541 -0.0317289004738618 )
( 12.279892014873235 3.037665318183636 -0.0388232521854544 )
( 11.959881600945312 3.210750876888103 -0.0424264220590535 )
( 11.641876925406402 3.3670406012010767 -0.0423236965906039 )
( 11.32285096765158 3.512806599881462 -0.0402680993832255 )
( 10.9953034724096 3.6863176889782743 -0.0373123305090149 )
( 10.684130959872297 3.920846813420936 -0.0365946558822759 )
( 10.44386032944206 4.242886387391693 -0.0357350939302527 )
( 10.139436100199488 4.587469904757813 -0.0326180338490555 )
( 15.440138437435616 1.439277402679985 0.1069507210858832 )
( 15.200326119391486 1.5314935984793407 0.106009178458191 )
( 14.915821894426436 1.6634043136498748 0.099004814806271 )
( 14.676084905092358 1.7590246951666844 0.0855136730048182 )
( 14.417148439272957 1.8584290614924792 0.0682720792997999 )
( 14.130474643529684 1.9746563682872769 0.0479602429867147 )
( 13.844866601438346 2.0822544644437992 0.0284049903341398 )
( 13.536903982116645 2.205260694917491 0.0106802060662509 )
( 13.194234563281784 2.367934096331572 -0.0068560213365999 )
( 12.828409689619194 2.550472077662547 -0.021498450079111 )
( 12.4519117902119 2.759158930432384 -0.0323292722478116 )
( 12.10020959332066 2.960834651064947 -0.038872642739483 )
( 11.7563696539069 3.1289024233291323 -0.0414484220026841 )
( 11.41812629161762 3.281336276101091 -0.0403438870092161 )
( 11.078901896167086 3.4504110426644194 -0.0364218893401544 )
( 10.7427262124089 3.648170232066307 -0.0338976256434518 )
( 10.446728337521764 3.9168609164026 -0.0347972471510574 )
( 10.160381926777797 4.264533399840753 -0.031869901934202 )
( 9.669798072298352 4.524917370781041 -0.0310180141372434 )
( 15.377622101323484 1.3808075967283182 0.1042624506332353 )
( 15.135029132688013 1.470426927169021 0.1013356681526038 )
( 14.848053766972672 1.5945320554910838 0.0934436972583415 )
( 14.597888080459663 1.6811955917335095 0.0796849451410157 )
( 14.33253275258237 1.7819082191303588 0.0632130885280895 )
( 14.041298345415392 1.9014649472824656 0.0437898424124276 )
( 13.742268498524329 2.003828359835645 0.024589517380229 )
( 13.427877610027055 2.120807225002695 0.0079347484844375 )
( 13.066977941829748 2.2828332062032133 -0.0085818718681164 )
( 12.68421509130101 2.4648125042961824 -0.021924454535682 )
( 12.29389856638296 2.671444075580171 -0.0319915342864582 )
( 11.9171329956304 2.876292959410456 -0.0379900359541285 )
( 11.56192689312714 3.051519478456514 -0.0389440461045671 )
( 11.217207984202082 3.204807339776023 -0.0375180816407481 )
( 10.856556169684673 3.389512751140927 -0.0344424951058784 )
( 10.505521279408253 3.6161053063354 -0.0335632302310241 )
( 10.213006465859236 3.9146744768554527 -0.0329705885081213 )
( 9.835652420788977 4.259385341194975 -0.0288725120168689 )
( 9.051201211784717 4.362962615509981 -0.0296143087768336 )
( 15.318011940657607 1.31940633181355 0.0990517252904456 )
( 15.075207822122424 1.4095169073617095 0.0958958125086971 )
( 14.78556172384571 1.529964747216381 0.0877281790197131 )
( 14.5307361368141 1.6123031789647202 0.0743155215540554 )
( 14.255484138121156 1.7094186478078732 0.0586169115952798 )
( 13.950492832017474 1.8178024555129864 0.0397020532903407 )
( 13.641816184027045 1.9180539822305191 0.0207998119462762 )
( 13.321509794281456 2.0323883776419467 0.0046220456992311 )
( 12.936034085366616 2.19436156398314 -0.010657940009154 )
( 12.537137753776754 2.3829826832859684 -0.0226342736423448 )
( 12.144018199595337 2.584445944527755 -0.0315473227568291 )
( 11.756667174930575 2.790465666078992 -0.0363927109058269 )
( 11.387799465671849 2.9752274004744352 -0.03623247667758 )
( 11.017440572046842 3.133988485307855 -0.0337579538486297 )
( 10.646752454390482 3.3253149207719765 -0.0314034590103722 )
( 10.293203159277365 3.580418087444946 -0.0314291491106666 )
( 9.951711618164303 3.906961639674003 -0.0304597656122817 )
( 9.494920839464692 4.231008017944555 -0.0293067749818981 )
( 8.229885876469002 4.056640599060905 -0.0275208809430919 )
( 15.265191443842262 1.263639732542641 0.0940445314201241 )
( 15.01684164447093 1.3493815606549502 0.0917641867599585 )
( 14.724352354920232 1.4653051215998485 0.0835803066091219 )
( 14.46906261020256 1.5472699914337 0.071092608375228 )
( 14.184037288048978 1.6374257050166945 0.0551378471335535 )
( 13.87151850244314 1.7342903387102406 0.0358036320100674 )
( 13.55381706644896 1.8388514966894185 0.0177150133410062 )
( 13.216971407630403 1.9594014179958743 0.0023641344788542 )
( 12.812455942081922 2.1131324814744747 -0.0117077238852075 )
( 12.39352550564602 2.3024272899152174 -0.0226967566268115 )
( 11.994134390061626 2.4986175695223234 -0.0304955468100022 )
( 11.605379258213716 2.691641131966897 -0.0346771009661197 )
( 11.219844053237653 2.875689987126767 -0.0337785150435272 )
( 10.824788976867875 3.050031220871667 -0.031083662549545 )
( 10.440325895062063 3.259040792466277 -0.0276686013030663 )
( 10.078363392779837 3.5387136782902933 -0.0257381740193405 )
( 9.662144640836162 3.878754563059589 -0.0259375733613216 )
( 8.977324533493226 4.093598513809812 -0.0252853615054766 )
( 7.407346077831174 3.711522683355825 -0.0214599623237947 )
( 15.2182061740173 1.2061858365664706 0.0902011111016542 )
( 14.965540780488762 1.2900249417566163 0.0882584383236653 )
( 14.665683723166929 1.4012804569196975 0.0799321325760754 )
( 14.406675329662033 1.4767784565277249 0.0672740690757889 )
( 14.116920326045523 1.565642408111103 0.050722297345184 )
( 13.805064623559463 1.6648092584226133 0.0318190791596132 )
( 13.48351360444606 1.7685935135607245 0.0156283341281461 )
( 13.124202742697388 1.885606220745 0.0014056407333845 )
( 12.70831276110592 2.036332943875029 -0.0119323816900509 )
( 12.281432767916735 2.22260510763162 -0.0217899898649818 )
( 11.863840847191522 2.4158341479276983 -0.0288911600481349 )
( 11.450691219670768 2.598497828863095 -0.0330606160924608 )
( 11.045137755603369 2.7747519060534565 -0.032852211395929 )
( 10.636687921379306 2.959005831182552 -0.0308988984085429 )
( 10.24306587263735 3.19346358225658 -0.0274404355623263 )
( 9.854352970802784 3.507316376458494 -0.0252729480011357 )
( 9.371035689715663 3.8372590736634287 -0.0232925015450132 )
( 8.383714163293943 3.872627701805343 -0.0192419711317756 )
( 6.681627850380096 3.3822261738714103 -0.017598148496391 )
( 15.176677034326485 1.1461132746782563 0.0867756817248806 )
( 14.924411201441124 1.2289290719156576 0.0839380579739255 )
( 14.6163919070223 1.3384043749207408 0.0755467140179058 )
( 14.34916578093825 1.4078636686995072 0.0626499736744537 )
( 14.052543220264356 1.4917486089661711 0.0461001636683553 )
( 13.736405001179245 1.5905430545892136 0.0290619298956913 )
( 13.40791611025477 1.682708718258089 0.0140572973360329 )
( 13.03725166831405 1.797002934202426 0.0004755520026429 )
( 12.622026059695418 1.9574012604328663 -0.0119217903171834 )
( 12.18734342162741 2.140047624418306 -0.0214090040019741 )
( 11.746500772552531 2.334084428604712 -0.0285894876928055 )
( 11.308172878062406 2.5090460236704057 -0.032305689037275 )
( 10.883956512483856 2.679329006974464 -0.0333534668628781 )
( 10.452578402100633 2.8758813578010893 -0.031921594394341 )
( 10.045667916838989 3.127090938666698 -0.027791364134428 )
( 9.60556376828675 3.45809647948312 -0.0263207736890817 )
( 9.0309509887309 3.750534160966944 -0.024286204084092 )
( 7.8648194479101186 3.6476054583665647 -0.0175637836717611 )
( 5.99368279661876 3.037885910415281 -0.0155192664937615 )
( 15.140430290564396 1.093320270881389 0.0831635460598672 )
( 14.886078854150416 1.1701615686725164 0.0798414586934529 )
( 14.572401805834698 1.2729709940402325 0.0710542239170105 )
( 14.299338207479844 1.3410433785201816 0.0585123390472841 )
( 13.99609433045726 1.4179646278671725 0.0427752050568703 )
( 13.675797538722442 1.5072677404961958 0.0266169558589456 )
( 13.333805057696036 1.5936151327690922 0.0120392333145816 )
( 12.95533446477599 1.7148749216686483 -0.0006673436920567 )