/*--------------------------------*- C++ -*----------------------------------*\
| =========                 |                                                 |
| \\      /  F ield         | OpenFOAM: The Open Source CFD Toolbox           |
|  \\    /   O peration     | Version:  2112                                  |
|   \\  /    A nd           | Website:  www.openfoam.com                      |
|    \\/     M anipulation  |                                                 |
\*---------------------------------------------------------------------------*/
FoamFile
{
    version     2.0;
    format      ascii;
    arch        "LSB;label=32;scalar=64";
    class       volVectorField;
    location    "0.0015";
    object      U_LES;
}
// * * * * * * * * * * * * * * * * * * * * * * * * * * * * * * * * * * * * * // 
 
dimensions      [0 1 -1 0 0 0 0];
 
internalField   nonuniform List<vector> 
13597
(
( 17.30805872223414 1.7903309695786924 -0.0026481623707768 )
( 17.307049086814967 1.8411749552186152 -0.002014883791112 )
( 17.318213185455008 1.9450091822101927 -0.0003133933340632 )
( 17.339808870758635 2.078156017935048 0.0026533398231755 )
( 17.360108545727563 2.1902614910485028 0.0059441554541372 )
( 17.37505629698499 2.280550654283868 0.009540139190624 )
( 17.393705512237556 2.3688980754645943 0.0143564407410574 )
( 17.415470671117607 2.4618117660196157 0.0201802480246308 )
( 17.440310937943384 2.5529105120624926 0.0270159673562105 )
( 17.466732705040624 2.6422308770581817 0.0345073956136359 )
( 17.494352595200898 2.739154292051982 0.0437071654622603 )
( 17.527709744461813 2.83383799989436 0.0535833884230909 )
( 17.562927636909993 2.924865083438952 0.0636993820581569 )
( 17.597421999559053 3.0196053045481404 0.0751366505780512 )
( 17.632168971506868 3.1156685123039045 0.0871035202940733 )
( 17.668671207119345 3.2097807977851183 0.0990291835630793 )
( 17.70846166503829 3.298571651319579 0.1099866024819035 )
( 17.74930308535805 3.386021047134093 0.1208999035933698 )
( 17.790423128955812 3.476361385443324 0.1331788379705386 )
( 17.17201209011481 1.8194609799810704 -0.0056075750754258 )
( 17.152806600514783 1.8841543259591316 -0.0058485622951384 )
( 17.14114822036574 2.0205583258024253 -0.0037596251813705 )
( 17.133554030620154 2.175515393579345 0.001066423300502 )
( 17.124452660999864 2.293246207341592 0.0060813124569447 )
( 17.113500899290248 2.399537095066931 0.012088519366737 )
( 17.10713804859842 2.504933040481363 0.0195561953946712 )
( 17.10099545696949 2.6132957426207284 0.0286115173246091 )
( 17.09789564929198 2.720710531792445 0.0391714537365263 )
( 17.094984354079383 2.8253879938430515 0.0507074314946575 )
( 17.090271651677867 2.9386923948305226 0.0645792883395301 )
( 17.08512469016515 3.0560683383557548 0.0792865770587279 )
( 17.078491303895895 3.1715535333997606 0.0950760522393901 )
( 17.074858330782316 3.289262959483449 0.1110398048600864 )
( 17.07324830282934 3.403489060957295 0.1262184375068687 )
( 17.073640040456016 3.5109254481304664 0.140800344909575 )
( 17.07571021558746 3.609326287481489 0.1534861473319867 )
( 17.07740793243902 3.708888831700471 0.1658920661432578 )
( 17.084341454644402 3.807757812591516 0.17837560535124 )
( 17.041062086420087 1.8376378502722617 -0.0029648509093278 )
( 17.002472686995226 1.912372152559128 -0.0009725886081673 )
( 16.96616665872294 2.068628013055477 0.0039846662969714 )
( 16.928728279634253 2.235269907826078 0.0121520198393649 )
( 16.89088247191152 2.3560020735522174 0.021258144403037 )
( 16.856967558807902 2.472282478724429 0.0315944008507507 )
( 16.82609572031649 2.589649009484187 0.0430798141587777 )
( 16.789238067003144 2.70494876745547 0.0564073360361415 )
( 16.75465223362427 2.822091702137409 0.0713337939048406 )
( 16.721705333026772 2.946648863609654 0.0868308605594377 )
( 16.68558872966838 3.074958091587704 0.1035221501968845 )
( 16.6485451711337 3.210064393500993 0.1209499465839527 )
( 16.61250412671333 3.347802423563295 0.1386315983534125 )
( 16.580910386935372 3.4793092133747976 0.1546146679900882 )
( 16.55435429040969 3.599509177059552 0.1679827667918957 )
( 16.53235994922913 3.7063414180532286 0.1795069284065136 )
( 16.510573800447187 3.8021797602690057 0.1888398989825478 )
( 16.489138289497237 3.898165412732995 0.1971027384423468 )
( 16.47628631893626 3.998654355679337 0.204480214670496 )
( 16.915191305296375 1.842917798925786 0.0070009036466338 )
( 16.858605756353416 1.925546598610832 0.0129903206982715 )
( 16.7995264360412 2.0895979321427367 0.0213101851040451 )
( 16.73429369530005 2.259945075754428 0.0330808206844872 )
( 16.668727335862865 2.3841445139678767 0.0464010930468097 )
( 16.608293423358713 2.502878064924557 0.0601703477424513 )
( 16.54539759039906 2.6259830893181104 0.0751958617854083 )
( 16.478536806156104 2.748823371780556 0.0910344768099275 )
( 16.41741452478813 2.8750149216730194 0.1072860769839387 )
( 16.35870459448322 3.010202724560137 0.1230769879830962 )
( 16.295591505007764 3.1518930467763924 0.1389935675819446 )
( 16.237759652488048 3.2992077435583824 0.1544842225755798 )
( 16.186495239764746 3.446614438714783 0.167629087599202 )
( 16.13563541321402 3.5868224553279777 0.1785861249574437 )
( 16.088834228952045 3.707598416488594 0.1865998941421839 )
( 16.048208094926107 3.811720028246418 0.1919570279355903 )
( 16.00965823392709 3.906329082169101 0.1952029023053905 )
( 15.96981795477431 4.0021934319025645 0.1969440650533312 )
( 15.934073790902866 4.10985895496468 0.1979804551496925 )
( 16.79850312900859 1.836403352114998 0.0221038035208692 )
( 16.728087806909038 1.927150760933576 0.0317386384838946 )
( 16.643813731236474 2.0967721916171147 0.0432637497700578 )
( 16.550584228139787 2.262806739495758 0.0570745385463243 )
( 16.46143363368823 2.385472385170289 0.0721145188358639 )
( 16.37538312425146 2.5048994748385742 0.0870694221941656 )
( 16.283810008330878 2.630896604664221 0.1023193869447975 )
( 16.19166932506147 2.7585060500220897 0.1178877472587685 )
( 16.106937188715776 2.888089262359463 0.1325091734827322 )
( 16.022468996589602 3.02773815689324 0.1458220942400357 )
( 15.935645311688532 3.1820378561933502 0.1583335462959053 )
( 15.85487583905735 3.3413415507768853 0.1684483091794715 )
( 15.779568012564964 3.495782320708374 0.1754390108581599 )
( 15.705768063480935 3.6396695430869626 0.1799133572434204 )
( 15.635639890492843 3.7577832459812894 0.18155708113905 )
( 15.569520995840652 3.864449479109166 0.1814210718996079 )
( 15.50690270190522 3.9667334101461393 0.1798031943377519 )
( 15.445776726979098 4.069566217250968 0.1768479434373069 )
( 15.385077278290304 4.186356019776552 0.1729216760423859 )
( 16.692602003126535 1.816714187491486 0.040059056738568 )
( 16.60600541143237 1.9136720730486043 0.0515999188800483 )
( 16.49353019130851 2.08921303454658 0.0650744762766375 )
( 16.375537628652165 2.249795056320281 0.0791534526508632 )
( 16.265333887715194 2.369352383544261 0.0935480937772061 )
( 16.157255368717795 2.4894042841633284 0.1077970714386876 )
( 16.04591608620973 2.6137778497783795 0.1213805635510965 )
( 15.93065557841028 2.741040432988741 0.1348134941442338 )
( 15.815554224418946 2.8738722926969453 0.1464633215021327 )
( 15.701463139341689 3.024582085095422 0.1559895803492997 )
( 15.592831197569597 3.186887684497212 0.1631201409140474 )
( 15.485599771670628 3.3506874345036555 0.1670117598897267 )
( 15.383660652338254 3.510923594586463 0.1682405579803345 )
( 15.287793399197868 3.656457747495239 0.1669032565668408 )
( 15.19307076663538 3.777514273700529 0.1635387176865348 )
( 15.105751501863995 3.884727129895401 0.1592756437730312 )
( 15.020486309569346 3.9886698700439966 0.1542923045553937 )
( 14.935180002485318 4.094621995902759 0.1488841262791779 )
( 14.849828481817308 4.216026471358887 0.1430016383411693 )
( 16.589083023033165 1.7870869736035035 0.0590344894917869 )
( 16.485218486880864 1.890350493751478 0.0703686562271349 )
( 16.34803488619782 2.067292806115377 0.0824136115880767 )
( 16.208011587777538 2.219672576426957 0.0955279109910523 )
( 16.07810257775671 2.3349969404205884 0.1086952432892402 )
( 15.945710518193092 2.451471056810175 0.121506128540238 )
( 15.811646633541546 2.575646465685645 0.1332214167774243 )
( 15.674516105391678 2.7058246746317365 0.1427415787883823 )
( 15.533383909379866 2.841937305721727 0.149641215850086 )
( 15.398323594673837 2.998680918754064 0.1544423061636509 )
( 15.264407763176202 3.1669577294932965 0.1563925999181904 )
( 15.128023515821132 3.337099013903865 0.1554220541366102 )
( 15.001544188363155 3.497771311660593 0.1523346379973711 )
( 14.881867458796313 3.641314382732482 0.1475651186046981 )
( 14.762579380029234 3.7673100905063728 0.141802823306944 )
( 14.65104166529293 3.873015490348131 0.1358890366711431 )
( 14.543318765708614 3.975427418688752 0.1300191337154988 )
( 14.433170297490584 4.08662386152904 0.1238945304794421 )
( 14.323152254883862 4.212035840310954 0.1175322509132173 )
( 16.491886065342293 1.7519199161066976 0.0754284432880043 )
( 16.369705906834565 1.8550748623240287 0.0853970696897046 )
( 16.209725540809533 2.0278519750986645 0.0955323449637034 )
( 16.04801531120202 2.173043113456918 0.1067662848808274 )
( 15.89610605899052 2.2851017465387056 0.1179905426132258 )
( 15.741505646677416 2.4014187345271485 0.1286316255085436 )
( 15.58343750064394 2.5285259213840288 0.1365578087407433 )
( 15.425352859061965 2.658323365290613 0.1419666136779927 )
( 15.260459408836685 2.795946532494781 0.1449339864223624 )
( 15.10144750447402 2.959672690101848 0.1454693083275256 )
( 14.939893626852406 3.132546058514448 0.1435259292489625 )
( 14.779377212007237 3.3074291750537577 0.1398397493546435 )
( 14.62844490716895 3.4700300423754307 0.1347202309721235 )
( 14.48040255008256 3.6078255085869646 0.1282411559305737 )
( 14.342712824187323 3.7275677949968498 0.1217899249114655 )
( 14.208916632136852 3.833604966895625 0.1155793640644489 )
( 14.077506916179251 3.9400015673823767 0.1094737224504243 )
( 13.945447116779894 4.0575589964020455 0.1032162337723312 )
( 13.814114344062254 4.188369346796141 0.0969285960937476 )
( 16.39918689599637 1.7054110575837989 0.0885567729086491 )
( 16.25672552836731 1.8033661367179927 0.096451818307271 )
( 16.07365180736048 1.9715819238482315 0.1046920880355824 )
( 15.893164318920386 2.111256746314396 0.1139016741651279 )
( 15.717451961102544 2.224681090317181 0.1224152809748658 )
( 15.544336629099693 2.3405315600844734 0.1297070492774121 )
( 15.367744440171125 2.4650735778583948 0.1338918085805081 )
( 15.189381026173155 2.601003118567271 0.1361696843790224 )
( 15.004343220501914 2.7455183925846893 0.1362830952499155 )
( 14.812484437214527 2.9087402987925888 0.1334068105385474 )
( 14.625301041512277 3.084799737337097 0.12898559619064 )
( 14.446038535444206 3.2596114465517982 0.1238981467703291 )
( 14.267485402501096 3.42235753796496 0.1175987194182689 )
( 14.095448305697076 3.5592339489381613 0.110702682839536 )
( 13.94051834684746 3.6742816411492543 0.1043984804589176 )
( 13.785774046838904 3.7824454541823 0.0980239327272527 )
( 13.631484637112996 3.890740792694332 0.0918690552932254 )
( 13.477435975145994 4.010768051994081 0.0863531599525182 )
( 13.32210902322153 4.146712439710494 0.0811284475065946 )
( 16.304406628011414 1.6556185718801866 0.0984923791062893 )
( 16.140569897566987 1.754849346186739 0.1040582286453573 )
( 15.936805255156074 1.916447139809432 0.1099240120167109 )
( 15.740248468133366 2.0455353153377303 0.1165740781474533 )
( 15.54738560867802 2.1607725011921213 0.1220905369354984 )
( 15.356248877082026 2.272383824997243 0.1256738474105322 )
( 15.158447617761654 2.3903425194150585 0.1267846967588682 )
( 14.953966968984808 2.5277176455670456 0.1261749613189629 )
( 14.750735365407824 2.674255443214954 0.1240647947366837 )
( 14.538869260819444 2.8392736377228096 0.1199521462008193 )
( 14.32899465949153 3.022824375957374 0.1144721258909802 )
( 14.127457334757583 3.201556394734166 0.1085959203055678 )
( 13.928061004133996 3.3594592614865357 0.1021214250304582 )
( 13.7394778480321 3.4958985054332974 0.0957332851951816 )
( 13.562025824820562 3.6109277454304594 0.0897685659081927 )
( 13.383969591786723 3.717136150006122 0.084038795450861 )
( 13.204289208742598 3.8249245527326137 0.0787549152941916 )
( 13.026952336101566 3.9459434589522537 0.0737246099126279 )
( 12.850373366346965 4.088228592128105 0.0684582121975434 )
( 16.211650649676724 1.606248432513077 0.1043971113208652 )
( 16.03151169875761 1.706347437018886 0.1079598888860754 )
( 15.804183991378537 1.8586400473170068 0.1117406058264907 )
( 15.594071849143836 1.9772414511250025 0.1147928118799311 )
( 15.386589869844132 2.08778982321586 0.1171420286551362 )
( 15.17428977727379 2.1968955488873947 0.1179069091359351 )
( 14.957455067689564 2.309910565651757 0.1165546999191835 )
( 14.735754717328913 2.441235382361873 0.1141683149406406 )
( 14.511555097691325 2.593271895826382 0.1110010616313829 )
( 14.284204870912848 2.762846974167507 0.1068149312267264 )
( 14.053907586977632 2.9466370957629078 0.1010295382632991 )
( 13.824822206034565 3.131302318399721 0.094969005998849 )
( 13.610927102896405 3.2864477674550834 0.0891547923297892 )
( 13.406163544983317 3.4214926448908 0.083463739815175 )
( 13.201709519787403 3.5373200752179432 0.0781135933245925 )
( 12.997489021300591 3.6409075327750218 0.0727394698863107 )
( 12.79502794154242 3.749663059339986 0.0674139079622887 )
( 12.599375782611451 3.874257043028141 0.0618511145107157 )
( 12.401920698335184 4.024150652315797 0.0560675686225879 )
( 16.118365383546458 1.5509517549266438 0.1073271456643015 )
( 15.92107712182452 1.6497252074990745 0.1087892331838465 )
( 15.6743091802632 1.796102615677177 0.1099724192173827 )
( 15.452370108306807 1.904448816294168 0.1101703683237453 )
( 15.22949917714411 2.005614828785556 0.1099092060936878 )
( 14.998985669391816 2.1141299033853387 0.1081799004887408 )
( 14.770082521613045 2.232300003235866 0.1057769479341509 )
( 14.532304109993747 2.364654824418059 0.1027708440493403 )
( 14.289852072303448 2.519234838954033 0.0988063012641548 )
( 14.043706153053538 2.6876440708938896 0.0940888041503372 )
( 13.793921811061846 2.8668823251768107 0.088764135567967 )
( 13.54430093992317 3.0460179762884927 0.0836214886945671 )
( 13.307677545109122 3.203695599736257 0.0782082411798212 )
( 13.079591289217236 3.3439770646730067 0.0727175326119405 )
( 12.85038344552782 3.4585130840138025 0.0673521295591688 )
( 12.627179476120672 3.557774548496048 0.061774168362807 )
( 12.410096989792985 3.6674251206612487 0.0561225735523036 )
( 12.195831601404048 3.801643630492846 0.050520465390934 )
( 11.976455078908565 3.9617655337174593 0.0457686103301602 )
( 16.024317077803634 1.4859588824816363 0.1077209323190448 )
( 15.81026121827562 1.5828899572839252 0.1065013622994314 )
( 15.553044377613505 1.7263377065842969 0.1047779752517223 )
( 15.317051069388452 1.8315214924058416 0.1032984664532724 )
( 15.081563717532225 1.9322144644244683 0.10169743743781 )
( 14.838851587728763 2.040273851019566 0.0985961454731592 )
( 14.595793823016267 2.1587387786708927 0.0951325795638056 )
( 14.339729137955787 2.2882316182256317 0.0914559749746977 )
( 14.079039681609038 2.437060861521564 0.0873262526730808 )
( 13.817761963111474 2.607555068147354 0.0831494839408496 )
( 13.546911800138536 2.791793786192991 0.0783445362993125 )
( 13.278987351320076 2.9659184911315783 0.0736852701151336 )
( 13.016823496368 3.1216608408014483 0.068709014393072 )
( 12.75999480144565 3.2597048073644896 0.0631428336991633 )
( 12.516535587389612 3.367167182861833 0.0572528120146255 )
( 12.283455250574496 3.467272036261624 0.0518934970235397 )
( 12.048707606121802 3.5829314649612245 0.0471339839880432 )
( 11.809962656728008 3.724002790495636 0.0428014248425745 )
( 11.56031801416106 3.898374371879959 0.0399793923809464 )
( 15.93344386673104 1.414338883231249 0.1052658548671024 )
( 15.71021526332395 1.5103578624094451 0.1017515081981863 )
( 15.439683058665532 1.6508535461301814 0.097709758078931 )
( 15.190764826707408 1.754961396260592 0.0943732707246393 )
( 14.941949991689691 1.855617305672685 0.0915155784367129 )
( 14.690942937088504 1.9586787552232967 0.0881716956641228 )
( 14.434729139417584 2.0745886112133305 0.0845379944054241 )
( 14.16982631456692 2.2039624626014174 0.0810613634209841 )
( 13.891399088925606 2.348655099401028 0.0775001147053885 )
( 13.6082074847887 2.519027818427665 0.0738012959621975 )
( 13.316611757655256 2.7053744380486298 0.0690275076650779 )
( 13.024083459604412 2.883355380356157 0.0644798792168888 )
( 12.74045747005106 3.039943174922552 0.0601563399439812 )
( 12.4685427214153 3.167516638183764 0.0547154755421408 )
( 12.211103971556437 3.269838126326834 0.0492149865486316 )
( 11.95732848778365 3.377146019437074 0.0446788941503079 )
( 11.69922367242183 3.505399038269023 0.0407436735644302 )
( 11.42994467935893 3.648695548382266 0.0380774107302874 )
( 11.140445383892107 3.82832571094174 0.0368361457566452 )
( 15.846816946343557 1.3449112597553663 0.1004741737961621 )
( 15.612199847198143 1.4403471226053255 0.0956124576127682 )
( 15.321100533324032 1.5782819769259184 0.0896541356941024 )
( 15.062963668721826 1.6743495371799304 0.0845588574260114 )
( 14.808058821405911 1.7706710158053358 0.0808273746221326 )
( 14.551446718524874 1.8722742240746169 0.0771788140602226 )
( 14.282684883917405 1.9848123609262796 0.0738094455044183 )
( 14.003068495009147 2.115460484331088 0.071183098980727 )
( 13.713193908075777 2.258799643034181 0.0684998525189597 )
( 13.41132372828207 2.424149362392966 0.0649407515242387 )
( 13.095381782433837 2.610653026106988 0.0603697736859299 )
( 12.777569892144452 2.7878355110398783 0.0565070428649699 )
( 12.472506327314647 2.9454130280456146 0.0526624519105049 )
( 12.191083194627296 3.0689985885510827 0.047479766396161 )
( 11.920363759869057 3.1709360659610373 0.043018402218097 )
( 11.643774967531575 3.28276251435411 0.0393522377179149 )
( 11.354026812516926 3.416391780514908 0.0364420059503939 )
( 11.047140798649153 3.5716405554732527 0.0350478017643672 )
( 10.731123388967028 3.77162884885836 0.0333580611926403 )
( 15.76313694517157 1.2782977524027113 0.0935535340212822 )
( 15.517665475056631 1.3719717619280942 0.0866097144288089 )
( 15.213947878049089 1.5051326154812874 0.0796416441678863 )
( 14.947242217791976 1.591371924623002 0.0741645312016536 )
( 14.687432493562955 1.679253945169432 0.070309376098314 )
( 14.423014540099553 1.7866983541616712 0.067409657292267 )
( 14.143922455659268 1.894216229979417 0.0646693721013163 )
( 13.846868520857829 2.0162893605946124 0.0625353366043703 )
( 13.539938098518576 2.1637714015024936 0.060509989502493 )
( 13.220708894680891 2.325158919346089 0.0570023521330792 )
( 12.87774885058662 2.5143118868901437 0.0533451485987167 )
( 12.5340995719531 2.694763824631105 0.0500440884049265 )
( 12.219664522833307 2.8434426365063388 0.0461510668728722 )
( 11.931355251389409 2.9634140412683867 0.0423644229760279 )
( 11.643474268979675 3.0701796657840226 0.0386755124480516 )
( 11.341005299485031 3.186171418210725 0.0353522346089442 )
( 11.015576121810248 3.322876795666341 0.0344739105009308 )
( 10.67332028499823 3.4957405064859493 0.0322612431376038 )
( 10.355485093948287 3.739097080276713 0.026813166582248 )
( 15.684009616352151 1.2130251095574818 0.0856196840643089 )
( 15.425609358920903 1.300642513133646 0.0759231796557422 )
( 15.114969561054718 1.430852774313858 0.0689867923857749 )
( 14.847331017197655 1.513172849188392 0.0640288740289293 )
( 14.579552799931111 1.5966612566450007 0.0606611307366779 )
( 14.300405171672312 1.7004860661781902 0.0587340196160499 )
( 14.01007167639754 1.800795711053673 0.0565362426267726 )
( 13.707679896889136 1.920257549567363 0.0550109229404104 )
( 13.382608561010956 2.069058291454077 0.0533782762653672 )
( 13.039677843584212 2.2233624331804585 0.0500173974722786 )
( 12.685250253569397 2.4063544473537384 0.0474905560670166 )
( 12.32303862188688 2.5983966327346275 0.0450762558150314 )
( 11.99545415684556 2.7441428077942205 0.0418638610809988 )
( 11.690263591049003 2.856332450368492 0.038883659193348 )
( 11.374719719052068 2.967188975276642 0.0349898462502268 )
( 11.036189348725843 3.0833616235433974 0.0321117926808313 )
( 10.679871731711556 3.2307840108064623 0.0304667809804255 )
( 10.328223922886009 3.431209357304013 0.0251397530548409 )
( 10.0270595942389 3.7261429050995902 0.0182063903997722 )
( 15.605420791661077 1.147509877949363 0.0763680534745708 )
( 15.339443499006792 1.2291673839991384 0.0656238248797375 )
( 15.02268012201321 1.352320337021398 0.0584355379023719 )
( 14.755435347889156 1.430698437761162 0.0539750323625616 )
( 14.481829924987792 1.516691185760486 0.0517115769007653 )
( 14.189886311590715 1.6155734650496525 0.0506782108664737 )
( 13.891406830527178 1.704940791172893 0.048575067049006 )
( 13.577509081676348 1.826005581835088 0.0475704447492613 )
( 13.234043436281745 1.975932964408226 0.0470253509754804 )
( 12.873396898609723 2.131052113803282 0.0452978832490232 )
( 12.49981701347933 2.303018741683563 0.0433292471656411 )
( 12.123750922893551 2.4801434551716377 0.0411917646916948 )
( 11.781917592441255 2.628295841654145 0.0386294722802713 )
( 11.450733973460649 2.7463745002095226 0.0355242422622055 )
( 11.106045788738347 2.850892038066006 0.0319080175079456 )
( 10.7404599227608 2.9697893740832457 0.0287744487368917 )
( 10.3627633328582 3.1330903251028848 0.0243396526238851 )
( 10.020652171417913 3.377924898483709 0.0165539996650326 )
( 9.71096286211221 3.7318944444420623 0.0094358632655765 )
( 15.53216432823245 1.0801099049208087 0.065336925200048 )
( 15.261695476044624 1.1558284051629606 0.0544778424541433 )
( 14.936502624791496 1.2680887572675297 0.0474884417435373 )
( 14.669095600099586 1.3460423290867218 0.044310562685138 )
( 14.38977712718572 1.4294450166549573 0.043126799449311 )
( 14.085726139000206 1.5260928947536458 0.0431915195447728 )
( 13.786766026757324 1.6162414184851328 0.0419569163024616 )
( 13.459294577984185 1.727233085208738 0.0411642373743738 )
( 13.094931096331129 1.8740876897881644 0.0413605274075808 )
( 12.714397927688262 2.033754897386021 0.0410632347714685 )
( 12.31530648804818 2.204018732284048 0.039652338901459 )
( 11.93379946975158 2.367050828703529 0.0371380615137693 )
( 11.572633552043207 2.505774605774889 0.034207821069116 )
( 11.211763939174762 2.626292851086695 0.0321199248731909 )
( 10.848385126027154 2.734948176567665 0.0299506203978984 )
( 10.465050366510145 2.8670607010437577 0.0258753975031823 )
( 10.076158205578414 3.054399616535396 0.0187165378919622 )
( 9.732320790946874 3.338715470272893 0.0097586514728831 )
( 9.325971798700127 3.702511092063189 0.0006267195947797 )
( 15.468162891233307 1.0127922470721855 0.0540346149340894 )
( 15.188207563829645 1.0779045149675377 0.0425682299607173 )
( 14.857198991254956 1.182889403148362 0.036370907323405 )
( 14.58671992377338 1.260298635388444 0.0348128069646232 )
( 14.30219390733675 1.3426465947584407 0.034781775421697 )
( 13.989702739879514 1.4406617242489166 0.0361227327989486 )
( 13.679924299595095 1.5289326874125286 0.0366882773035958 )
( 13.346842801698871 1.6301811731779334 0.0366048126377713 )
( 12.972063329575576 1.7677100453417682 0.0371694458170873 )
( 12.569927715391424 1.9200752098746088 0.0369402727176639 )
( 12.150586970712585 2.094581986574289 0.0351150522285059 )
( 11.755644524292189 2.260230996219469 0.0327103227140599 )
( 11.371235890372136 2.3893900028722346 0.0300710623863188 )
( 10.989212191681265 2.5016901387658894 0.0281929816325233 )
( 10.599050772793737 2.6264774624591545 0.0270331653865408 )
( 10.199448162633916 2.772722875545053 0.0226799526776013 )
( 9.811777938510904 2.984813333024779 0.0129314646870745 )
( 9.409579380579071 3.2976858925089383 0.0046257429289771 )
( 8.830875324562241 3.604336206717162 -0.0051446667863975 )
( 15.405604860509955 0.9414093950075342 0.0419891360356747 )
( 15.12422211755124 1.004188802006447 0.0312620416410522 )
( 14.793191805894232 1.10174220111703 0.0261233680966423 )
( 14.513745866968316 1.1691732962870676 0.0255079759668537 )
( 14.222872224572471 1.2525476641190356 0.0267847436198034 )
( 13.90581913363001 1.3539658749496295 0.0297405305368531 )
( 13.583808838291633 1.4359438394623871 0.0321035403225214 )
( 13.24576063658399 1.530242035566536 0.0330251598201329 )
( 12.852680909979805 1.6638022046642302 0.0342655219899673 )
( 12.432952939763677 1.8121632785778987 0.0338012499796517 )
( 11.998367056264527 1.980819435554596 0.0312528068623885 )
( 11.575488384890956 2.144660018877764 0.0290138442922679 )
( 11.178737973331923 2.278809920718029 0.0273691777313784 )
( 10.789495088642438 2.3881863565329216 0.0249258608064676 )
( 10.37363624382312 2.518468059289818 0.0219932550993705 )
( 9.95007749322368 2.6801209285666845 0.0155448337574957 )
( 9.553633450629668 2.9135471332456437 0.0070839268076343 )
( 9.057136504179091 3.232685279296753 -0.0006424388705935 )
( 8.217378569285648 3.424162138855255 -0.0108742239413513 )
( 15.34673034582416 0.8693281679325846 0.0293741161928418 )
( 15.065922518815114 0.9325812818962824 0.0206005262601212 )
( 14.733715205915518 1.026207029324284 0.0173736843832953 )
( 14.451051131106777 1.0890567826722608 0.0176743611829777 )
( 14.150591911457337 1.1676476670568807 0.0204577981194288 )
( 13.821208383212578 1.2561491202424615 0.0248453710347725 )
( 13.491025809043684 1.335815314734084 0.0280488471600135 )
( 13.147556331371783 1.426497381226758 0.0293509123120934 )
( 12.729817254497927 1.5565439777226122 0.0308314870839844 )
( 12.293182149338568 1.7087721590716587 0.0307955952847409 )
( 11.855836355264548 1.8692117032679845 0.0284953353271065 )
( 11.420954626591817 2.0316194207222904 0.0265867537526969 )
( 11.00825923200527 2.172138784822751 0.0252073786301485 )
( 10.59200050009564 2.278216633389264 0.022918764629431 )
( 10.163569381703793 2.405254315950704 0.0188296857038752 )
( 9.727239371806602 2.581364293165906 0.0103575669379807 )
( 9.272382744436916 2.8384011762319656 0.0014166496562921 )
( 8.701768672293797 3.1526101592807465 -0.0084595943249069 )
( 7.439007418840838 3.129588996441596 -0.0150965758512416 )
( 15.292168927715313 0.8044257987515252 0.0175716210607188 )
( 15.00694994203932 0.8619714316907187 0.0100864240590102 )
( 14.674759955303124 0.9509106171317304 0.0088400187817123 )
( 14.393137696506567 1.0140627786144691 0.0107584779376675 )
( 14.084274173246191 1.085132081008423 0.0149562001287121 )
( 13.749988583227964 1.1609946164831584 0.0204754215273538 )
( 13.412184714309252 1.2435929968945183 0.0249050322792806 )
( 13.051526908240884 1.3386956673062629 0.0268160431720008 )
( 12.614890395594909 1.4577346316425224 0.0277117226824244 )
( 12.157123280577014 1.60635530059983 0.0279785533489839 )
( 11.713463974819096 1.758167451515096 0.0265618163901003 )
( 11.279207515605467 1.9052893706130731 0.0243436591867817 )
( 10.849802384377126 2.040635661260665 0.0223846830641495 )
( 10.405395679280325 2.154446107321575 0.0202274244536294 )
( 9.957035878903822 2.285958893263114 0.0173130024474865 )
( 9.50505001296606 2.4738557726773043 0.0098092752057686 )
( 8.972229257195798 2.744303340566518 -0.0012988119589357 )
( 8.199053910363098 2.98178326397735 -0.0108229634317455 )
( 6.677319874002785 2.7967258346463635 -0.0137302886350654 )
( 15.244183932165472 0.7379222377017071 0.0064917212855267 )
( 14.955548518207491 0.7927946932743074 0.0004708941063797 )
( 14.619096493817946 0.8770231889940059 0.0015744960347131 )
( 14.336321518186312 0.9338277679308854 0.0052496362597829 )
( 14.023225348132732 1.003780282243028 0.0109599976680859 )
( 13.690257802382977 1.0826030795395385 0.0167777122115812 )
( 13.350294901802712 1.163630115043122 0.0216823041449639 )
( 12.968176284699156 1.2524797803719645 0.0244170809079263 )
( 12.51967378030506 1.3665270310543214 0.0253351908138734 )
( 12.05404593241859 1.5088727480137158 0.0259395768810342 )
( 11.59304212603764 1.6530283082193988 0.0246905513334512 )
( 11.134934985043552 1.78369128243918 0.0219690008701745 )
( 10.685386533775327 1.9049159189429872 0.0188639135485391 )
( 10.22567680254314 2.021793640193137 0.0150224162093645 )
( 9.762869672589876 2.1664208508893914 0.0116707028420269 )
( 9.2761160994415 2.379941917755372 0.0044147891567377 )
( 8.6796491614202 2.6419610723259983 -0.0044413477234117 )
( 7.644875930902003 2.739765205762769 -0.0099062937873283 )
( 6.016123672538645 2.479831891592884 -0.013950374932748 )
( 15.201708399039944 0.6695648403722549 -0.0042891528309247 )
( 14.915481872453189 0.7238487802073841 -0.0079579160731175 )
( 14.572662635009308 0.8054922269212355 -0.0046455406481243 )
( 14.284151915256166 0.8558245205324697 0.0008461702285589 )
( 13.965444912185712 0.9203311936664942 0.0073377269482669 )
( 13.629234393260422 0.9986932468268744 0.0135664001158082 )
( 13.2842911713796 1.0672468634248886 0.0183567971210553 )
( 12.89093840202834 1.152052903005911 0.0215242397779368 )
( 12.44207379042682 1.2750869639970916 0.0233897617523005 )
( 11.96953883443658 1.4108161663778618 0.0236786031332302 )
( 11.48605591900998 1.5516251210531624 0.0212581189087754 )
( 11.003789989180548 1.6681714393674003 0.0186691067037685 )
( 10.53489872212429 1.7758160496405249 0.0149517910626767 )
( 10.049925697259573 1.891915258592864 0.0100277861002645 )
( 9.572100718253896 2.042987975169726 0.0053357664572932 )
( 9.029269949794896 2.270273254714862 -0.0030491973192875 )
( 8.351795282690617 2.50311462600806 -0.0105833625582378 )
( 7.173078166468837 2.4964200662765297 -0.0121222753664276 )
( 5.3995183877966255 2.15578552772624 -0.0139260583259733 )
( 15.16534929370628 0.610595705860241 -0.0134131489189986 )
( 14.87913371984238 0.6590890624460829 -0.0150598188142767 )
( 14.53214552569556 0.7328307394295173 -0.010423067255355 )
( 14.238616603682264 0.7812314217050172 -0.0040463158854035 )
( 13.91566752100914 0.8377615596734184 0.0030216666969047 )
( 13.5782974705753 0.905706850383662 0.0104657127507078 )
( 13.220063101194055 0.96706294348297 0.0154965933024372 )
( 12.817779204654231 1.0581747257506344 0.0193210331150391 )
( 12.369318319027908 1.1821507181062607 0.0220518898982443 )