/*--------------------------------*- C++ -*----------------------------------*\
| =========                 |                                                 |
| \\      /  F ield         | OpenFOAM: The Open Source CFD Toolbox           |
|  \\    /   O peration     | Version:  2112                                  |
|   \\  /    A nd           | Website:  www.openfoam.com                      |
|    \\/     M anipulation  |                                                 |
\*---------------------------------------------------------------------------*/
FoamFile
{
    version     2.0;
    format      ascii;
    arch        "LSB;label=32;scalar=64";
    class       volScalarField;
    location    "0.0034";
    object      k_LES;
}
// * * * * * * * * * * * * * * * * * * * * * * * * * * * * * * * * * * * * * // 
 
dimensions      [0 2 -2 0 0 0 0];
 
internalField   nonuniform List<scalar> 
13597
(
0.2892207363194679
0.2918329769980633
0.2957876265282421
0.3013864039820168
0.3049342707463234
0.3067694595473311
0.308389760598197
0.3092544625983696
0.3107061336057508
0.3125293428076266
0.3150274703566106
0.3186565371153094
0.3221753580299166
0.3258441542620592
0.3299608657878107
0.3339331033152297
0.3373153243338789
0.339713156699726
0.3420585668953862
0.2985771682503291
0.3025743016507245
0.3084483696176284
0.3170189191615689
0.3213673107485399
0.3238696191320484
0.3253686352862128
0.3267853541341454
0.3286097492396571
0.3298701151530701
0.3310089893966151
0.3321458515384434
0.3328439254913283
0.3331622745559884
0.3335710209384413
0.3335383019327064
0.3329072188656021
0.3319274732454262
0.331137020165
0.309910508213241
0.3154976918026428
0.3221977609365314
0.3305717647175135
0.3342016650901719
0.335805153358641
0.3354578206016731
0.3346505791939381
0.3335702944006816
0.3313388708689459
0.3278354551087508
0.3250092545637577
0.3228193809664294
0.3202280618763403
0.3182560588776938
0.316754622575451
0.3152563758285604
0.3140403419813787
0.3133520717169663
0.3201468563211696
0.3258198550034044
0.3309671513691663
0.3359539567479178
0.3361866065284141
0.3337223910804875
0.3292762887383952
0.3241101196885518
0.3186901319947807
0.3135828929846758
0.3074802457554694
0.3027333325663248
0.2997140709200266
0.2982471865821609
0.2983772339773096
0.2993116744357515
0.300757733499736
0.3033648335112899
0.307126316393947
0.3271772588434896
0.3300861163356244
0.3316635878764607
0.3315352435233955
0.3262618875920571
0.3192263221866203
0.3105386988741394
0.3015717791753929
0.2939724884616301
0.2880802089140581
0.2842110502023114
0.282715842392457
0.2836971801132955
0.2872119263045203
0.2917097427539291
0.2972584025887509
0.3037253671214774
0.3113927329188223
0.3207082519275686
0.32950619812039
0.3278601258296072
0.3237597580588841
0.317926747333406
0.3079078211748354
0.2983542344584146
0.2884759618749733
0.2790167894091856
0.2724698232991138
0.2690078368820476
0.2695324177481626
0.2733134385127787
0.2802859373597144
0.2895288312843882
0.299649825481918
0.3104439310012624
0.3221887121044353
0.3347583321914957
0.3492468533225585
0.3263176899333558
0.3201620727079029
0.3108591085879526
0.3000683080611617
0.2884347516739745
0.2776140185027665
0.2675069452778013
0.2603652383694699
0.2573623916571869
0.258824375267166
0.2645883477911789
0.2747330145936833
0.2884532191334884
0.3036899744028433
0.3198945018059423
0.3360038788486734
0.3523790330121542
0.3701545433915367
0.3893522060097097
0.3205505713032238
0.3102254480150956
0.2975166417656246
0.2839454696738708
0.2709619913177638
0.2601545851260385
0.2521508071767981
0.2484885798504424
0.2499640426881368
0.2568108172758619
0.2690787809284863
0.2866714455845915
0.3068480855027619
0.3279149466634085
0.3487639878067345
0.3694343802383706
0.3907028331391545
0.4134306115403217
0.4367576933048818
0.3127672731623612
0.2990387711184913
0.2838583830397916
0.2694335212166264
0.2566643179478636
0.2478236242469083
0.2428377964583529
0.2432564466479679
0.2498345549464091
0.2628500431719263
0.2819381754581119
0.3057669075547499
0.3318893735008745
0.3582950080049311
0.3834842188133059
0.4082901553267203
0.4335092107978383
0.4598382591540529
0.4870035602943876
0.3048285721719685
0.2887568937424453
0.2708613310505901
0.25679524200704
0.246300993496955
0.2397578820456106
0.2376929767012312
0.2427163680858692
0.2547616768927364
0.2739737009502052
0.2997153706238285
0.3290428518020848
0.3601982505870638
0.3908080039915878
0.4197442132674284
0.4483511994407478
0.4774607167144543
0.5074827787786406
0.5388809458000605
0.2978113701590994
0.2798417569766556
0.2607030630493422
0.2473519129294948
0.2379284495412468
0.2339273955085071
0.2366017439669102
0.24642586064507
0.2638784497099083
0.2881816734654575
0.3191040341305454
0.3543829272232586
0.3892468350239395
0.423342209674079
0.4564818998622108
0.489320494565564
0.5231412336811311
0.5576865208674895
0.5946297454370275
0.2905743097651513
0.2717053095850422
0.2529421834378658
0.240146459198339
0.2323811411819901
0.2314825925958574
0.2386085168623142
0.253198284559802
0.2756350922642585
0.3046632367179211
0.3398978912739425
0.3794947308010348
0.4183928447440131
0.4571607834104311
0.495545324189994
0.5327227236390325
0.5707913662733536
0.6115927540076419
0.6560793235666803
0.2850819137037766
0.2648567514176548
0.2463729174233609
0.235100936591416
0.2299143805976023
0.232181860722688
0.242827330336629
0.2619434946796266
0.2887649511086284
0.3219741963540223
0.3621727007556717
0.4055097368928924
0.4488799243248057
0.4930665321355467
0.5352989308718445
0.5767920817092417
0.6216603556194432
0.6709033678997588
0.7236174134507938
0.2817540221572845
0.2596865703265694
0.2406671753790861
0.2313630705640655
0.2287432994121115
0.2342165208538531
0.2481984872916193
0.2703213718808638
0.3008619826714338
0.3387349020304394
0.3831432482176474
0.4313740916897478
0.480292140560153
0.5283297761520859
0.5749110400567766
0.6239867192382046
0.6784006818980196
0.7361698443677779
0.797694934137253
0.2781498363959676
0.2546285436270687
0.2358897682999095
0.2283325262257969
0.2286126601595948
0.237022897331393
0.2539920506028545
0.279341679792118
0.3130746753924191
0.3549179356482373
0.4041106158901824
0.4578223161480148
0.5129547524412706
0.5652506094961842
0.6179188946192703
0.6759488667338509
0.7395618107224742
0.8079124999373459
0.8878985221614368
0.2733336563956252
0.2492848123195858
0.2322742988874992
0.2269245319298362
0.2298330938209813
0.2407580618424836
0.2602285801302924
0.2888595531864499
0.3261597240959083
0.3711118141899684
0.4262135248827242
0.4870147080134916
0.5461249494233641
0.6031552953247119
0.6638586963953129
0.7307488971538915
0.8052369619520533
0.8922748001225032
1.0060973962759594
0.2675124661022294
0.2440560102582368
0.229212041735157
0.2262302277737541
0.2315073600150091
0.2452044299207568
0.2673014270138182
0.2980576649757976
0.3385836798123503
0.3877239707845815
0.446099758705219
0.5130478482305502
0.577945845239734
0.6415983177435941
0.7114186542859987
0.7890545359370142
0.8797954436235301
0.9966363717341898
1.1481336165519205
0.2615630923193763
0.2393774143785488
0.2265341599822039
0.2257340656321691
0.2332873962447134
0.2494451523464857
0.2735710749507902
0.3069621693841506
0.3510827208024285
0.404287641415624
0.4667416923873808
0.5379879546028009
0.6097698227076895
0.6828997733115946
0.7618706230565003
0.8517019039254687
0.9678471837141136
1.1223950962411673
1.284763364202866
0.2561512008516353
0.2353000595524402
0.2247131392804447
0.2259645187212041
0.2351782244540452
0.2538694131872703
0.2795798640459476
0.3151251221978062
0.362847057521763
0.4204380657933574
0.489388886713229
0.5644494703966726
0.6427258240200814
0.7262016927583039
0.8156376575015618
0.924438982947956
1.0744657234969246
1.2655565992519466
1.4021508533165843
0.2512594504969098
0.231487485652954
0.2235406610206217
0.2265915433470315
0.237495642063808
0.2582237666599181
0.2861941089931151
0.3233847038708478
0.3731942115287154
0.4351069256575227
0.5106242622575253
0.5923318151357143
0.6778171513250327
0.7688801931058242
0.8755240916812002
1.0095811998064324
1.1968965590995568
1.4129927038096015
1.4905871366166557
0.2463181056585383
0.2280673463138151
0.2221880747189656
0.2269537192606452
0.2399864949817097
0.2623655394675928
0.2920353695632769
0.3306397086731835
0.3838223528038747
0.4501345444208613
0.5312954091551821
0.6222368040840724
0.7147956873905125
0.8118111341604926
0.9375477018165256
1.1071945446686733
1.3323308155440474
1.5495427193932307
1.501079680116503
0.2413251190287096
0.2252161484418483
0.221301768043556
0.2278068791578978
0.242785509796584
0.2672370285204314
0.2983501663632694
0.3379634872584018
0.3957121460202606
0.466881754554064
0.5516576114930509
0.6481290492523413
0.7480168759000217
0.8589562486705701
1.0032649817434665
1.2117783746255826
1.4706510769106138
1.6642473458448408
1.404191069632075
0.2367301562867158
0.2230113411158104
0.2214578397019279
0.2292155205931124
0.245302100959815
0.2709332819890169
0.303858772007491
0.3461638734674027
0.4074274337021423
0.4843284183444012
0.5732443438745344
0.6722347059114357
0.7786393752132881
0.9064115034359566
1.081335410162331
1.3271503498408226
1.6060805110808607
1.7035335476325568
1.2870219399105731
0.2326335445019811
0.2207776233895603
0.2216469006750097
0.2303716008173918
0.2473663255947877
0.2741714654797301
0.3083290244266771
0.3533113839814047
0.4172064090496433
0.4977542952073021
0.5921243963817867
0.6989690177001666
0.8145021616172291
0.9580764100728286
1.166198720874328
1.449160473672711
1.7311401451838582
1.6814124919577769
1.1757035419331583
0.2293371147233195
0.2191532944594422
0.2215010107847703
0.2314136132950995
0.249850558092872
0.2777241029991651
0.312555046239448
0.3595562651257017
0.4255591996531642
0.5091452210224007
0.6104327644367518
0.7249141966436722
0.8500735610056895
1.0185153450231446
1.253469592707645
1.5626088775579787
1.8218885203564128
1.6454323271811833
1.0501134881169112
0.2268272028560521
0.218397999696232
0.221870463421731
0.233165091652289
0.2528031959094161
0.2804540428373293
0.3167476405139111
0.3659899028992457
0.4336385153663361
0.5222082878422127
0.6285253598168983
0.7481511947683055
0.8851943447892243
1.0768069133136435
1.3393353210196406
1.6691945088937268
1.8492821984780077
1.5629478978365854
0.9527173981157988
0.2240776974455365
0.2174488167973625
0.2228407465614857
0.2355874351660558
0.2555908390764383
0.2831108500093387
0.3216802267187919
0.3736486836090376
0.4431444840458023
0.5354023359943113
0.6452865499594834
0.7697996446481923
0.920258208084651
1.129655685636674
1.42416705382971
1.763514164848352
1.856367328340773
1.4707247567073765
0.8719413688625863
0.2217961927633642
0.2166635865643391
0.2239264585726969
0.2378762468295406
0.2581859196074079
0.2866526407995072
0.326288200749788
0.3795193476226655
0.451643127849317
0.5489425771519957
0.6638712277199057
0.7909105762188444
0.9523002858291846
1.1828647317151055
1.5148099885916924
1.8522120323368807
1.8848536315314952
1.408536936828024
0.80281271298841
0.2200198601704315
0.2162738174797711
0.2245204792955372
0.2393480196891378
0.2603286740671034
0.2896722037352172
0.3298372294338792
0.3837285951324131
0.4588568828058926
0.560606462437204
0.6785533853950966
0.812990336888074
0.9937730174982004
1.240904915038229
1.595891461074847
1.9191129753069336
1.8847977105578504
1.351114631327427
0.7571624751552917
0.2185969694030566
0.2161817298795728
0.2254546356892536
0.2409297864139046
0.2625859552429747
0.2925979886138147
0.3327530613092166
0.3881936214733687
0.4669794951076687
0.5698168535258897
0.6895307143429639
0.8361474799808283
1.0311351086563023
1.2967453131974267
1.6648264806785016
1.9147507055599224
1.810793348551213
1.2925343778046523
0.7290568992925137
0.2176696116836774
0.2165373082894645
0.2273074803913847
0.2430251959229858
0.2646853413720026
0.2956900035596911
0.3360747349193128
0.3934814188781357
0.4749533793700499
0.5791307942245614
0.7024340685433909
0.8578748665457985
1.056729190162225
1.344992794327666
1.72580034678991
1.899410869922414
1.7338862395980366
1.240252741616519
0.7090684445088007
0.2169328841692067
0.2170777102690345
0.2291784548486175
0.2454486848755604
0.2673115850308616
0.2985488418182411
0.3395831155466365
0.3990407549794376
0.4821332373745008
0.5883496772449054
0.7151058339602162
0.8756702041937865
1.0831611889380337
1.403023170856576
1.7837405333693268
1.9195015759957603
1.712090764910152
1.196826065870598
0.6856612849054367
0.216383458284707
0.2175727032538459
0.2307092732565388
0.2478395046027591
0.2702750523081502
0.3006165038894973
0.3416934652730584
0.4032315616064862
0.4883362026575987
0.5971830094099743
0.7274469914820535
0.8934377040293193
1.10839624381287
1.4516918226253006
1.8387445254429529
1.950389607427382
1.7097583173540898
1.1654420804881036
0.659812668333485
0.2163316727327192
0.218434980620167
0.2321725643950001
0.2497054053407482
0.2725128149250542
0.3022425538258614
0.3430992923638
0.4063922672480037
0.4933631451017329
0.6060469718154601
0.7411329531985758
0.9108244685331564
1.1307891825385374
1.4857202698065943
1.8858516263548768
1.9819826022669509
1.7109781718196442
1.1461842583524484
0.6435670983332135
0.2167500863681108
0.2195429926868706
0.233753740118671
0.2510512647402209
0.2738975298635496
0.303990247069231
0.3450087199652804
0.4086327049182898
0.4973046908564497
0.6128351630784025
0.7514896496510001
0.9248854789681724
1.154727541281663
1.5209156553614196
1.9187050780578228
1.99686095801588
1.7049198389729805
1.1292868416223385
0.6321951348866233
0.2170228981581641
0.2204058937061034
0.2352023506007373
0.2523323663467539
0.274703202136474
0.3053040688469157
0.3465717643605153
0.4104188363774733
0.5015112813102492
0.6178162442385179
0.7590433397547769
0.9376555507410212
1.176537941200634
1.5460083131147262
1.942382575601564
2.0095709143476745
1.694456797328609
1.110140873493333
0.619540945452462
0.217110342166299
0.2210299632761385
0.2367329943391827
0.2540078267463657
0.2761289586639271
0.3072767988939346
0.3490855525156948
0.4131150664997774
0.5060363281222614
0.6230952395189292
0.7662248580143984
0.9499634589225352
1.1947769520107083
1.5680105941315254
1.9621164947088523
2.0145299248186945
1.691397098251236
1.103698052586093
0.6097591086957159
0.2173430998149036
0.2218948403410757
0.2382453672693402
0.2555620008340134
0.2775369644172661
0.3088708218238998
0.351810718738519
0.4159564929139188
0.5100989772814019
0.6275481625501769
0.7725074826810164
0.9609212230235228
1.2172601658882998
1.5938534349318876
1.9705043704447631
2.0132292184657814
1.6829880822600725
1.0986404858654446
0.6038813198055062
0.2177182958919813
0.2228786681708533
0.2392137026298084
0.2568485683103359
0.2788418499286996
0.3095266561183893
0.3528857592431429
0.4175086787662395
0.5133890604166427
0.6313937391360361
0.7777319682488627
0.969580656500443
1.2406884524581152
1.624744371576769
1.9741324100429272
2.004378618718619
1.666097443242096
1.08642667736088
0.6006531987970485
0.2181448778062974
0.2241188386596113
0.2408231871084124
0.2584795067838267
0.2804284329921664
0.3107149923449108
0.3539614201048545
0.4184655870632253
0.5146996534916922
0.6332184891471774
0.7808468118262654
0.9753081217870102
1.2530775347071892
1.647461380059733
1.9798500484065364
1.989558517774321
1.654369983299246
1.079086556046515
0.5991703124451978
0.2187106172265988
0.2253832380750281
0.2424964856294372
0.2599071790482452
0.2818213129712685
0.3121961887155662
0.3549588118443464
0.419625287586969
0.5166424817074163
0.6367107276244179
0.7846028166696855
0.98269781292679
1.2639834462534922
1.6589151098372177
1.978992111466009
1.972283938205898
1.639085135751803
1.0699722153113214
0.5982610491701479
0.2192548518815125
0.2264409980414761
0.2436436105399529
0.2609046602733035
0.2827478335490156
0.3133487344318436
0.3563074719580328
0.421374896273977
0.5199230734915954
0.6430813648950654
0.7902760359113941
0.9903112618777444
1.2739070130756365
1.6627644780694009
1.9764444998312112
1.9627542415568304
1.622404911382365
1.0562991269130857
0.5948232810117058
0.2197094788779252
0.2274590802225785
0.2451066641314666
0.2623684400356968
0.2839428480212725
0.3144555134747746
0.3578114184262818
0.4224701910485678
0.5204506374160418
0.6460518894731759
0.7944270398966922
0.9931948601657256
1.2737871006225472
1.6671188579686005
1.98547649005642
1.9596156097470767
1.6076977465769786
1.044025950828629
0.5878467430740919
0.2202255694887462
0.2280889542007657
0.246143724155032
0.2637192393831995
0.285272574560157
0.3153829894424113
0.358145818564596
0.4224883763006534
0.5216335835594256
0.6495918437139067
0.7985335073809177
0.9976260459883622
1.2767638256617553
1.6731254052743434
1.9812752919903385
1.942468966501956
1.593861799608146
1.0363415985461613
0.5840433354974813
0.2197870368866422
0.2199962427984992
0.2209685334442746
0.2228772152411758
0.2250687061698265
0.2258860035862496
0.2255705693326212
0.224680374749753
0.2242693292664367
0.2238079730573495
0.2233754705284912
0.2234925330439938
0.223007752157775
0.22271480094385
0.223397273194509
0.2241393536334773
0.2259917156599358
0.2286559288361661
0.231108473797515
0.2232718932600977
0.2246954201565115
0.2265690954142317
0.23068895643251
0.2344193077761648
0.2367924815821673
0.238724573690567
0.2395985646545788
0.2399610365888566
0.2399620102195187
0.2397839112211985
0.2403453080692725
0.2402264260514534
0.239943065100828
0.2407566899937337
0.2415383934349134
0.2432198880918736
0.2461819177495602
0.2486312384026928
0.2279749098194202
0.2309087549793457
0.2355416343560757
0.243269757732524
0.2490156269183852
0.2533757654079311
0.2570550539300695
0.2589593976830637
0.2596765088225513
0.2603156064483132
0.2605910345495303
0.2611649206718944
0.2619683748119915
0.2631846910928467
0.2655231850756766
0.2687444719557216
0.2721023350058164
0.2753787885331381
0.2782228370432072
0.2347526370786585
0.2394267155564443
0.2466010973191946
0.257159698506135
0.2646406713753118
0.2706076928563323
0.275148122754641
0.2774579150692061
0.2783414586425419
0.2787961611602639
0.2797469200609248
0.2810947053798964
0.2837077559432112
0.2876100317730124
0.2912620649768663
0.2948226376849576
0.2979489754498759
0.3008692496922975
0.3037225044707933
0.241244859312352
0.2475565639242083
0.2584542969047952
0.2711617344533782
0.279688478858715
0.2863172758173382
0.2913002318585111
0.2938432165203335
0.2955672674301933
0.2971872636297528
0.2997297684583695
0.3028421279289643
0.306462591118722
0.3108956822396016
0.3144590118423679
0.3174257077776519
0.3196483344353824
0.3213732214619696
0.3223747998405087
0.2463249976472053
0.2552965310190127
0.2698707946809713
0.2841854808324289
0.2935209790177615
0.3008011634129414
0.3061385955763174
0.3096981296746235
0.3129759822649644
0.3153905729620676
0.3180842798007368
0.3216053919188375
0.324984643552461
0.3277044604085167
0.329930366557728
0.3317383593950148
0.3325540004950184
0.3332889888098972
0.3337497128098339
0.2530832509788662
0.2644904051804848
0.2803355056685511
0.295713368402775
0.3061774064173672
0.3139564506244637
0.3195117866754197
0.3237772440647856
0.3276074563169953
0.3302542996957874
0.3323058355935469
0.3347763355130103
0.3371550106595291
0.3386901340135836
0.3399805012957742
0.3414418825077071
0.3429784467623573
0.345105738337827
0.3475863867941864
0.2605616495963234
0.2725418507231982
0.2908242035641079
0.3072360593282694
0.3176530433200273
0.3252336771114507
0.3313671538856511
0.3352483285345215
0.338011464532142
0.3405478861928637
0.3421589354943269
0.3437430036585028
0.3453841242996247
0.3471055850168158
0.3494050622014723
0.3527638088713979
0.3571301686571762
0.3628347282965297
0.3698091441364687
0.2682897139491866
0.2807001256565137
0.3004421159828964
0.3174745548363269
0.3275705649566453
0.3351186008675169
0.3409726366271796
0.3446974932426845
0.3464738409371672
0.3472402655504142
0.3481376712837406
0.350163741940477
0.3528213001515615
0.3564817649586805
0.3619081712842545
0.3690746294471793
0.3778110160959358
0.3888027303572303
0.4021037476406016
0.2740466764080664
0.2878054618648603
0.308612868527431
0.3253332209432722
0.3354794031055612
0.3431012099892704
0.3480842141293924
0.3505861660407732
0.3513974733460568
0.351698967789617
0.3530203517295104
0.3567184466273552
0.3622156895840944
0.3698300727435213
0.3799125498880737
0.3919146583640966
0.4069236098917432
0.4248399162369956
0.4453625662074551
0.277962840465698
0.2938435523945393
0.3154761783363962
0.3315890819286994
0.3414009923211434
0.3482984353746016
0.3520545666952075
0.3530638041497139
0.3534431059313865
0.3546997315289919
0.3580192587860125
0.3650117575484148
0.3749058750793352
0.3878849038911336
0.4039359234972035
0.4220624104759312
0.4438870132175407
0.4692817225915625
0.4976009366309413
0.2824377176855891
0.2988888331337792
0.3207916937941484
0.3356012791966887
0.3444854674330327
0.3507430629142463
0.3532302861837098
0.3540197239954158
0.3550230844738887
0.3580491132685256
0.3651957399754374
0.3765222737728366
0.3914617846932319
0.4103885251981589
0.4330152023810422
0.4584580635440423
0.4875388848880607
0.521042785795649
0.5584413981469506
0.2852257839038607
0.3015689243782191
0.3241681031639716
0.3380099074208391
0.346201535579243
0.3515238817904121
0.3532448895090893
0.3541105726541464
0.3566748142296717
0.3629148738586327
0.3744637247674479
0.3913632992337235
0.4122244699616033
0.4369282284161365
0.4665203842002419
0.5001648617103592
0.5378842631096785
0.5812286692030543
0.6296898334670429
0.2862142134309305
0.3027546066899874
0.3255975493520463
0.3394822874890333
0.3474330019027719
0.351278642418194
0.3524346736252479
0.3541610247976101
0.3589563724590123
0.3689554956923824
0.3853833747249262
0.4080974697511589
0.435903976986461
0.4670639413357128
0.5045902316967318
0.5483665036098126
0.5956197116494298
0.6487408068465887
0.7095461496221249
0.2868038394127825
0.3030290459795672
0.3256876688221521
0.3392833410214728
0.346790101660712
0.3498319476992627
0.3515376871283322
0.3546639705400592
0.3621813872526315
0.3766576053441379
0.3981111493294011
0.4264960290727412
0.4618674165303613
0.5018587747242939
0.5473921111298842
0.6008617852094851
0.6592054445740678
0.724566017379809
0.8080399388707957
0.2865844233006887
0.3030009975220442
0.3255042326856194
0.3375921984578782
0.3444472074661551
0.3479078561614767
0.3508922608449568
0.3558807557967524
0.3662212569010385
0.3852169222716465
0.4117952971756008
0.4475615827220441
0.4909162444678367
0.5403483786684732
0.5946785709112844
0.6555332268965421
0.7268201271049349
0.814767916401741
0.933043430302646
0.285294974581964
0.3018860140663955
0.3247962287610679
0.3354819491955641
0.3415882662304266
0.3456747008554368
0.3500741719085492
0.3575169051195103
0.3714729142783685
0.3947429506238838
0.4273485111031332
0.4706890531222539
0.5216742591394931
0.5798367047801192
0.6443894952935774
0.7159870693317427
0.8038435882944881
0.9241810899265134
1.0729631271030529
0.2825000656818873
0.2991887935478889
0.3225492506037171
0.3326235584820031
0.338311065362319
0.343221008351674
0.3494558373869332
0.3593901148707017
0.3775328970265967
0.4055817276309366
0.4450586276634823
0.4963386566435621
0.5555987143735749
0.6225489978110771
0.6962044739018186
0.7829681878667276
0.8969547410890546
1.0581810766489048
1.211746665532402
0.2789668155821917
0.2962415316705319
0.3190012794219124
0.3286880985458321
0.3349578061435893
0.3406367287457291
0.3488324981749749
0.3618518934272692
0.3837279438495315
0.4166685809123471
0.4634680895923107
0.5223023940133381
0.5907388457084979
0.6666557183606345
0.7505906822742948
0.8589175096037616
1.0079723207065503
1.1998630524639575
1.310836899647458
0.2761065009439088
0.2932803630348585
0.315466236552855
0.3253359107089443
0.3323402425754546
0.3385069492872881
0.3480140140048819
0.3643862419636144
0.3904408039837305
0.4285684203660039
0.4831023087544134
0.5501856233977038
0.6270306093519908
0.712700412728153
0.81036691840391
0.94329756075756
1.1339857508569342
1.330078764138639
1.3647095875811657
0.2728752844459196
0.2893153615643609
0.3116317351575997
0.3223263531137545
0.3297560961027576
0.3365292011413656
0.3480736665544311
0.3674823149517505
0.3972602507780417
0.4407373902822654
0.5030313493489119
0.580510112213155
0.6650247848865596
0.7613186762271504
0.878073836444191
1.0404015649126144
1.2648569313707068
1.4480605635917296
1.3665195525806284
0.2688857450106101
0.2850459544951226
0.3078393138543664
0.3186723714037729
0.3264941531148412
0.3347091365790173
0.3483811288028792
0.370628529760972
0.4045368304432746
0.4535288538113354
0.5223122285693179
0.6084079355406695
0.7022389388898307
0.8095108507934274
0.9459037512230364
1.1492474450842156
1.405279739203501
1.5623122370681068
1.2765921344036908
0.2655599541842817
0.2810961181534226
0.3036598458933163
0.3143877632266312
0.3229094997144998
0.3328023683650791
0.3485531980842721
0.3737411831390038
0.4127854275153289
0.4682706552609633
0.5434861014726544
0.6376484780867077
0.7420960574547144
0.8620800805861141
1.0270950887741972
1.2714287465702283
1.5393570132459764
1.5875130804597213
1.1586973527888458
0.2621657505367147
0.2770940799897473
0.2994393239282598
0.3104773890495386
0.3200604225257139
0.3313049822319494
0.3492559738494312
0.3773134150548177
0.4207848371649323
0.4832277987731027
0.5650883971037878
0.6664978326562738
0.7814051805029614
0.9181869421633992
1.1165107004348018
1.3951161272744386
1.644922184931504
1.5465505584999328
1.0630592334046831
0.2579806578038034
0.273039683840053
0.2960097056227741
0.3073202294870917
0.3174251049500559
0.3299076184292684
0.349612733173451
0.3807873965496176
0.4284984321134504
0.4975074410375297
0.5871543955515988
0.6953177022506759
0.8202274475054009
0.9807216779077964
1.2081239289418146
1.501720879629055
1.714809744583394
1.5213778661056827
0.9679900161227012
0.2540749842275675
0.2694927244433652
0.292937138963829
0.3044234720440325
0.314510486325682
0.328936607605717
0.3510323238351118
0.3845564890018544
0.4367294093290692
0.5114455986359706
0.607509583878739
0.7238743470853733
0.8561482603497483
1.0383082174576448
1.2975988270098566
1.596013886609165
1.7218039071299027
1.440799103523796
0.8798179121205192
0.2508206477470069
0.2659147503272207
0.2890720824820221
0.3009528109007038
0.3121124738820325
0.3282421510416141
0.3525716680808623
0.3881023404689235
0.4438536545825698
0.5233918358455858
0.627061065826034
0.7526029157331068
0.8939685846348633
1.0911873244029773
1.378901672213612
1.6854294839485326
1.7340544110867508
1.3634871669210622
0.8050464845054457
0.2479324615461433
0.2621778484601478
0.2845372748921777
0.2972108750276593
0.3099485022050018
0.326763825357408
0.3522485799327581
0.3903275524186129
0.4494258440591818
0.5345095546558487
0.647057758181726
0.7786314856151157
0.9349114378234564
1.1534766641792358
1.467777996715179
1.780831555083097
1.7753838679594038
1.3257642490654575
0.7561869551878724
0.2450751601884246
0.2587156083354054
0.2810547050630816
0.2942021758496518
0.307431381488604
0.3250389653707479
0.3518636880908775
0.3933375574470196
0.4563192094383256
0.5471851361124439
0.6641569200127592
0.8010463753647455
0.9747369499173574
1.212902259372682
1.5416897417024522
1.8329148446124524
1.7751133726951442
1.284194023610397
0.7237791347606005
0.2422050456311585
0.2555030214690625
0.2782706344200158
0.2917842595829524
0.3051457614057425
0.3238989844039387
0.3528470680020558
0.3974780431638127
0.4628435251474362
0.5579654673109832
0.6805388179290471
0.8275912591993717
1.0165534579388475
1.2625896589456065
1.6020582447129017
1.8365004078588607
1.7101993463947287
1.2211369808240669
0.6910637151295722
0.2392503368552264
0.2526633049473695
0.2748854186027692
0.2885534595182976
0.3028023259182109
0.3229098086052164
0.3539510028015926
0.401617765380845
0.4691888234750553
0.5674084668025264
0.6951685302419511
0.8500098947977907
1.0453204586848852
1.3064854215043349
1.6691342680140826
1.8440181893818
1.6460944129774355
1.1613814536830365
0.6628501676376928
0.2360434124725399
0.2492547343780054
0.271065470205248
0.2852698730591922
0.3009757394957144
0.3223571219482816
0.3548678117121387
0.4055480461288039
0.4772571685562174
0.5795833800710303
0.709893929319246
0.8692865221489606
1.0703380402292837
1.3548502906432018
1.7325776618503177
1.872172992797003
1.6317274264503951
1.1236561114793822
0.6392527903642953
0.2331700164304656
0.2463187404371055
0.2685289942353277
0.2826691745474594
0.2994518588893844
0.3222769378944493
0.3557364530422111
0.4078047793797885
0.4830771497916742
0.5905719403196363
0.7255608711723187
0.8902503329100689
1.100561164311323
1.4069418521642825
1.7867265351433896
1.9088611183970503
1.6366409554864316
1.0986370388088895
0.6288651227464929
0.2312961890610717
0.2443781344942236
0.2665078389624022
0.2803937457906298
0.2980351043872931
0.3219271029153111
0.3564014482897117
0.4095443014588574
0.4875202223180159
0.5971228857787569
0.7343392990002966
0.9063432364027428
1.12412807914468
1.449815325664887
1.826678351609652
1.929913906109158
1.643218728462326
1.0811832552799554
0.6170901352292849
0.2300982386652084
0.2424109743225562
0.2638379933430955
0.278427711005536
0.2966316213555614
0.3215110582470291
0.3567014027651905
0.4111669435582341
0.4939827842621186
0.6049741009923776
0.7431674273937707
0.92184869303083
1.141711577677652
1.479351342684739
1.8584082722789537
1.951892196691424
1.6499474701293728
1.0656048953181962
0.602150418316172
0.2289890967184791
0.2403615939864323
0.2613186028532107
0.2765136607321589
0.2946401073002048
0.32058291870203
0.3569627347074201
0.413737752275658
0.5003335544225832
0.6129222795839601
0.7554059042014228
0.9361385203301652
1.1556646102467536
1.5078360551625265
1.898520010706035
1.976332545538032
1.6456260091692378
1.0559598696920849
0.5969771790025802
0.2277956990116985
0.2384283768585656
0.2591925362235185
0.2748025566822242
0.2926032364021508
0.3193710407132761
0.3573393286428172
0.4164653225972567
0.5053258206031042
0.6185894685773871
0.7623864621859182
0.9466760379936404
1.174319083352268
1.5367603430034409
1.9290586143955315
1.990708485452388
1.6430918121589138
1.0546374296078422
0.5973154879334246
0.2265173372636758
0.2368248658998635
0.2569783392835257
0.2730214852953481