/*--------------------------------*- C++ -*----------------------------------*\
| =========                 |                                                 |
| \\      /  F ield         | OpenFOAM: The Open Source CFD Toolbox           |
|  \\    /   O peration     | Version:  2112                                  |
|   \\  /    A nd           | Website:  www.openfoam.com                      |
|    \\/     M anipulation  |                                                 |
\*---------------------------------------------------------------------------*/
FoamFile
{
    version     2.0;
    format      ascii;
    arch        "LSB;label=32;scalar=64";
    class       volSymmTensorField;
    location    "0.0034";
    object      tauij_LES;
}
// * * * * * * * * * * * * * * * * * * * * * * * * * * * * * * * * * * * * * // 
 
dimensions      [0 2 -2 0 0 0 0];
 
internalField   nonuniform List<symmTensor> 
13597
(
( 0.1973356618127115 0.0725840687735707 -0.0015176847171682 0.1036441688373089 0.01377069087858 0.2774616419889156 )
( 0.2015832333548556 0.076334586512087 -0.0005746329898045 0.1073352156125198 0.0164577074254416 0.2747475050287511 )
( 0.2098484247273694 0.0823916760340945 -1.5711656281897847e-05 0.1137576696495499 0.0211543141619885 0.2679691586795645 )
( 0.2216744457236935 0.0895896147166539 0.0003882020125333 0.1226506016471568 0.0264199430624778 0.258447760593183 )
( 0.232467811490425 0.0950132990901463 0.0003323676247567 0.1304555773462368 0.0299895804027994 0.2469451526559847 )
( 0.2417380182542575 0.0985356381060446 -0.0002919361362097 0.1368084547698285 0.0323393458929576 0.2349924460705761 )
( 0.2508782737713852 0.1018329300015708 -0.0015395217123983 0.1428536700000521 0.0340653327005544 0.2230475774249566 )
( 0.2601372060839266 0.1053723345091618 -0.0029177605301255 0.1486817594652757 0.0351403340765389 0.2096899596475367 )
( 0.2697303903715127 0.108787777337321 -0.0039684262150802 0.1542771650975152 0.0362388114551791 0.1974047117424738 )
( 0.2791054327677778 0.1121306279486328 -0.0055322501467132 0.1599941314708595 0.0372454517122219 0.185959121376616 )
( 0.2888001350933056 0.1154829468492487 -0.007214471672933 0.1668584950300358 0.0383545459630083 0.1743963105898797 )
( 0.299078193814467 0.118927335089494 -0.0082856121583251 0.1738576344985188 0.0394100340994689 0.1643772459176329 )
( 0.3084496640934407 0.1224176816896919 -0.0091272473659036 0.1800565621384995 0.0402668654457882 0.1558444898278929 )
( 0.3172142840327541 0.1259419352878216 -0.0103905984830476 0.1868041239937672 0.0413918215005984 0.1476699004975968 )
( 0.3261584330092459 0.1294350326898145 -0.0125361081671891 0.193942976240304 0.0419651773059159 0.1398203223260716 )
( 0.3343766544294215 0.132930674409622 -0.0143283095011538 0.2000866399562904 0.0422315842209538 0.1334029122447469 )
( 0.3416512153969067 0.135870792207093 -0.0148382820681664 0.205313180469349 0.0426675806379786 0.1276662528015021 )
( 0.3477724856034568 0.1378495292034099 -0.0153630600845311 0.2093525830637282 0.042860310515616 0.1223012447322666 )
( 0.3539509153805682 0.1403257307119021 -0.0166089506171022 0.2127085201201938 0.0424106940026769 0.1174576982900101 )
( 0.2095791554330768 0.0877309634188675 0.0003184833222976 0.1202818197537752 0.0162441149044877 0.2672933613138059 )
( 0.2156237590016 0.0945356629128816 -0.0005173560916266 0.1262965964121672 0.017787171273854 0.2632282478876815 )
( 0.2271050131220731 0.1036643276651013 -0.002779131915192 0.1352805290387126 0.0199771408744526 0.2545111970744709 )
( 0.2429810845703277 0.1128976779897457 -0.0043937058138186 0.1466106160352187 0.0217104331012992 0.2444461377175911 )
( 0.2555452031386641 0.1192697842005793 -0.0068253099045504 0.1552173743576604 0.02175877476731 0.2319720440007552 )
( 0.2664582802427422 0.1237698200239507 -0.0095347858472272 0.1625853654389445 0.021463173500428 0.2186955925824097 )
( 0.2764632208600177 0.1277355789641065 -0.0116294038736319 0.1696208769953544 0.0208495282023869 0.2046531727170532 )
( 0.2865491252588745 0.1315301708536937 -0.0138784625967371 0.176714587690836 0.0196478411916116 0.1903069953185801 )
( 0.296568531032989 0.134571339471745 -0.0152321607228653 0.1830707137239976 0.0191014421605273 0.1775802537223275 )
( 0.3049671354838327 0.1369143046800217 -0.0158657530649135 0.189207552492037 0.0185011388991039 0.1655655423302702 )
( 0.3124648491074013 0.138623802786176 -0.0165282887323328 0.1959351373766729 0.017794947134149 0.1536179923091559 )
( 0.3193262101596518 0.1398751736708039 -0.0166492227094668 0.2026868952260315 0.0170896270085326 0.1422785976912035 )
( 0.3238016573615023 0.1398569606972784 -0.0165380301259341 0.2084336759994856 0.0160494073276467 0.1334525176216685 )
( 0.3262085148926014 0.1392157038321405 -0.0159309203282959 0.2137328096703495 0.015205426740863 0.1263832245490257 )
( 0.3275566163954921 0.1383567813442016 -0.0149650174297796 0.2185757997536921 0.0141240214064715 0.1210096257276983 )
( 0.3275320460828368 0.1368079705822474 -0.0147587353266002 0.2221300366848052 0.0122804249103592 0.117414521097771 )
( 0.3262546983855467 0.1348052756200358 -0.0143177779356245 0.2247444622031866 0.0102893962065535 0.1148152771424707 )
( 0.3235446278831252 0.1320810852161461 -0.0139141562860671 0.2269960606365291 0.0078540781941139 0.1133142579711979 )
( 0.320532298311788 0.1296366353691247 -0.0138656413315729 0.2288034973131043 0.0049273822963679 0.1129382447051074 )
( 0.2185939368847321 0.1038890052519683 -0.0039393688166597 0.1364050136750822 0.0182760613258291 0.2648220658666678 )
( 0.2261280861844884 0.1121384845060711 -0.0079109979816186 0.1441093237579676 0.0187415777755383 0.2607579736628297 )
( 0.240095586122947 0.1216557801269196 -0.0132471107846405 0.1542487690652541 0.0180543032643796 0.2500511666848617 )
( 0.2572351697194815 0.1301944265089272 -0.0175049140226866 0.1657389070563555 0.0167103746114299 0.2381694526591896 )
( 0.2694441440541757 0.1354787912700902 -0.021615005742172 0.1738666724378538 0.0146021806282214 0.2250925136883142 )
( 0.2798678404537768 0.1384562102964028 -0.0246796923425462 0.1804966281885655 0.0128449972329155 0.2112458380749396 )
( 0.2881496011773119 0.1399194989455658 -0.02614396473267 0.1863681408218454 0.0109362045403502 0.1963978992041887 )
( 0.294829413960293 0.1402878706850538 -0.0269034406898345 0.1914528905915821 0.0088043362256235 0.183018853836001 )
( 0.300457967578076 0.1389159355160062 -0.0263638411675504 0.1957265074373653 0.0075849907130008 0.1709561137859216 )
( 0.303792747961179 0.136561817604963 -0.0242095705740023 0.1999239919566892 0.0063130564422961 0.1589610018200236 )
( 0.3035055372167159 0.1330598888556325 -0.0218941412095202 0.2031185500204371 0.0050722245040858 0.1490468229803484 )
( 0.3020314534865634 0.1284828793260551 -0.0194150477006663 0.2061855916513269 0.0038053889701589 0.141801463989625 )
( 0.298778670185064 0.1226806902813947 -0.0172888043510001 0.2091408234714971 0.0018243285623054 0.1377192682762974 )
( 0.2931655429696125 0.1166491687472296 -0.0154849425598307 0.2114777292529489 -0.0007083871613861 0.1358128515301191 )
( 0.2874610854123907 0.1115464971538716 -0.0134591988656598 0.2134628208444684 -0.0034313322975567 0.1355882114985283 )
( 0.2819026616226567 0.1068552022169912 -0.0127819216239633 0.2149956561705188 -0.0066701636028556 0.1366109273577263 )
( 0.2759538341805638 0.1028324251289898 -0.0125647894706099 0.2162552583134946 -0.0102535468854266 0.1383036591630625 )
( 0.2697537624492642 0.0993194288234745 -0.0122941395786839 0.2176599461471252 -0.0139527651468329 0.1406669753663678 )
( 0.263910763174376 0.096477992478349 -0.0123207599757224 0.2195610835828818 -0.0179600359230739 0.143232296676675 )
( 0.2238502144519222 0.1173153018684242 -0.0117251538210408 0.1511984970802389 0.0192406840174949 0.2652450011101781 )
( 0.2319454836859158 0.1254430479320844 -0.0186889000682483 0.1596500892690871 0.0181889868915415 0.2600441370518058 )
( 0.2464757972949972 0.1330396353340455 -0.0267281667890812 0.1690402302885364 0.0146977109492736 0.2464182751547988 )
( 0.2612452869983064 0.1380512668356682 -0.0320274271037761 0.1783365635604508 0.0110890407400383 0.2323260629370781 )
( 0.2694818804797798 0.1396097957930004 -0.0345746147562594 0.1842069296322904 0.0080311522514638 0.2186844029447577 )
( 0.2748917019468671 0.138438990795709 -0.0345619967359825 0.1878423549409879 0.0057475467520506 0.2047107252731199 )
( 0.278043216021878 0.1351652490644795 -0.0325297101908748 0.1901745883049968 0.0040973297998784 0.1903347731499153 )
( 0.27872387041318 0.1307349936359952 -0.0281959530623918 0.1915057912487586 0.0025969293030882 0.1779905777151649 )
( 0.2774348376049482 0.125095874623667 -0.0229615977868792 0.1923996856421854 0.0017250783314026 0.1675457407424274 )
( 0.2752237950789479 0.1187162495780811 -0.0172165386101504 0.1935757127824764 0.0010772936643744 0.1583662781079273 )
( 0.270106640486393 0.111447794521604 -0.011975021863722 0.1934075126074137 -4.875267479771832e-05 0.1514463384171323 )
( 0.263745899289463 0.1042488811064492 -0.0073013122613588 0.193912320720727 -0.0019077441850616 0.1478084451224593 )
( 0.2579352240934728 0.0983990672916845 -0.0030893933697251 0.1956471300090898 -0.0049433973551393 0.1458457877374905 )
( 0.2526864056147305 0.0935647813952231 -0.0002181811842927 0.1973647782262496 -0.0086679414995643 0.1464431893233416 )
( 0.2484590801070794 0.0904236679898798 0.0021062401055812 0.1995944211722379 -0.0124304679362788 0.1487009666753017 )
( 0.2453918357854437 0.089314783161447 0.0040159576148153 0.2025418687759065 -0.0163027041213176 0.1506896443101525 )
( 0.2428096956728879 0.0894532513218641 0.005545845879439 0.2056604706840951 -0.0199137153814344 0.1530453006424892 )
( 0.2412136517064866 0.0906931128893022 0.0070615813022066 0.2095067079267535 -0.0236719186485745 0.1560093073893397 )
( 0.2403565272055297 0.093334283992381 0.0084862065341936 0.2144530362044218 -0.0275725757071333 0.1594430693779427 )
( 0.2253194180125849 0.1265193073009675 -0.0217240256541356 0.1635957803452283 0.018512509861059 0.2654393193291658 )
( 0.232146541519764 0.1322640955911446 -0.0293881411792305 0.1709792303624673 0.01540565466709 0.2570464607890174 )
( 0.244060058236477 0.1361888110277994 -0.0365067350514191 0.178261585004566 0.0105230872845072 0.2410055325118783 )
( 0.2538692622501868 0.1368382396789566 -0.0383294501688287 0.1844383986005667 0.0060505611013948 0.224762826196037 )
( 0.2562356256268618 0.1338981146153149 -0.0354675506461092 0.1865478655200304 0.0033595096835921 0.2097402840372219 )
( 0.2568287499298117 0.1288557169666745 -0.0296785894937071 0.1865830717280794 0.0017790859442452 0.1950408227153498 )
( 0.2556308647513198 0.1222635249118295 -0.0214568402549951 0.1854672178091692 0.0016033618706786 0.1799793151877894 )
( 0.2520155161471517 0.1148729341624521 -0.0120198106413045 0.1831841673226414 0.0019706409090328 0.1679438748809928 )
( 0.248501432308931 0.1080792794097982 -0.0035698927228335 0.1809855682218944 0.0015095158153337 0.1584579763924345 )
( 0.2455931860644821 0.1016894940260497 0.0037247399447981 0.1796930947483991 0.0005518187172116 0.150874137015235 )
( 0.2428349107283504 0.0962853452856185 0.0102662463196615 0.1796860593450258 -0.0016302246131649 0.1459011303312466 )
( 0.2400909875909605 0.0929113161351644 0.0162718786542055 0.1814748241707759 -0.0047584987804154 0.1438658730231777 )
( 0.2383799111292268 0.0920323716661082 0.0208090170741454 0.1848321313741938 -0.008743814374423 0.1441823177231701 )
( 0.2381470111060313 0.0934299497710463 0.023904723460083 0.1895095126206954 -0.0132881709884436 0.1467673288823137 )
( 0.23880982629708 0.0965526453520499 0.0266282659695453 0.1946746433728484 -0.0173869564529592 0.1499350158379296 )
( 0.2407016224928488 0.1017120880404069 0.029230259779095 0.2005481661556908 -0.0211822154469172 0.1532670165289623 )
( 0.2434001766723117 0.1083358510455412 0.0311110927939584 0.2070976664455208 -0.0246144652565142 0.1569528911251222 )
( 0.2474846940812066 0.1161047928625214 0.0324974771615089 0.2145511317564552 -0.0281262337561794 0.1607496399999827 )
( 0.252870699190933 0.1257976299454168 0.0334238183911741 0.2234036593653745 -0.031860832192336 0.1651421452988297 )
( 0.2224651726027142 0.1306143234277623 -0.0290568380528986 0.1726275899325439 0.0159152592849084 0.2639196337055218 )
( 0.2260916067596053 0.1326779231920697 -0.0346437320472853 0.1778466960529319 0.0118001351277723 0.251781948846677 )
( 0.2333131535520579 0.1321495238899555 -0.0365835618260687 0.1819281379645635 0.0072054237728712 0.2322782246011467 )
( 0.2380500842352907 0.1289800140056958 -0.0318136940254227 0.1843790262090452 0.0036228796540208 0.2134243842224759 )
( 0.2369949744173504 0.1231136913270942 -0.0230568034620003 0.1830423694338345 0.0025461911286554 0.1957782984984856 )
( 0.2365872930303819 0.1161247328582281 -0.0124844543746943 0.180289139499786 0.0024465335571408 0.179832036386661 )
( 0.2354982779532444 0.1092687508288379 -0.0010135316866059 0.1769379413641631 0.0028932378719898 0.1645157044325391 )
( 0.23301036084622 0.1026916003575369 0.0099296332142242 0.1730008347458752 0.003611911986064 0.152022383226276 )
( 0.2319593423618568 0.0980791708991668 0.019284549652301 0.1703710884556047 0.0028747078683716 0.1426092157807659 )
( 0.2320498515176391 0.0957731966404545 0.0271599406313242 0.1698922914118419 0.0007325524096986 0.1360735308346142 )
( 0.2334178209960074 0.0959602143197557 0.0336073534237597 0.1722938090614739 -0.0026242015414907 0.1333532054388438 )
( 0.2359134731535484 0.0993079641231557 0.0384873707659465 0.1770580929931774 -0.0070216367693374 0.1336553108788314 )
( 0.2395541038046439 0.1055264533692034 0.0416802534358734 0.1838870854174091 -0.0118769382775077 0.1371306854973757 )
( 0.2443464602818618 0.1142227410111853 0.0433610228825162 0.1927268801698382 -0.0167235276748803 0.1419843221170761 )
( 0.2502225762403861 0.1246904122899736 0.0442281784826712 0.2021559321635819 -0.0214996222935285 0.1469211425598677 )
( 0.2570846787601441 0.1360330649281524 0.0445824934076933 0.2115043572501054 -0.0256133503962671 0.152298825992275 )
( 0.2648670227100988 0.1482114581130568 0.0440012120288394 0.2213142689737514 -0.0295088591937983 0.1581961325250201 )
( 0.2738055056585445 0.16137317287671 0.042336551867269 0.2317263125448281 -0.0335182830923512 0.1639848461796187 )
( 0.2843249443710446 0.1763110174419794 0.0398013353598067 0.2434639778154156 -0.037719571635217 0.1707047844586564 )
( 0.2138517076099208 0.1294153155091794 -0.0308374174300094 0.179032044007573 0.0125824110034147 0.2597516282492174 )
( 0.2149016587091026 0.128166584527418 -0.0318537586440807 0.1820147863351626 0.0092191988783755 0.2434077003715407 )
( 0.219606530071784 0.1245345248113809 -0.0275001103373082 0.1828428451317233 0.0059466278741206 0.2192688419723978 )
( 0.2220354784080835 0.1187776466476237 -0.0169708928263495 0.1814589426114686 0.0040832336514936 0.1966421951027709 )
( 0.2223077658672748 0.1122915994855047 -0.0047236603384228 0.1779143574548609 0.0039671951367632 0.176647380025813 )
( 0.2228126689229625 0.10598022413181 0.0078241291559573 0.1732992063891454 0.0042838373760847 0.1591161616934249 )
( 0.2226414400707117 0.1008295593682899 0.0196526057396866 0.1686826420897155 0.0045374156000212 0.1436898083951754 )
( 0.223651743348575 0.097883496352459 0.0299201449764652 0.1658403352439925 0.0044949431512295 0.1312383981463723 )
( 0.2265248405809684 0.0980624419974914 0.0385356748547368 0.1655576245602222 0.002996214259247 0.1226423181731832 )
( 0.2303939553108905 0.1013621023834842 0.0448210016313872 0.1680883849661301 -9.022829562672024e-05 0.1191664102573114 )
( 0.2350974326000444 0.107977276641026 0.0487217609079673 0.1735717846205672 -0.0045565781438677 0.1205074783617461 )
( 0.2418776653497987 0.1184128218261398 0.0506344295114824 0.1823939424104415 -0.0103466969458293 0.1251944214271263 )
( 0.2507049911921935 0.1315709180826172 0.0508214240059188 0.1935577699063327 -0.0162192768821306 0.1326436771684503 )
( 0.2606299406672516 0.1462797362493402 0.0493443378350785 0.2058518323079938 -0.0219073126861487 0.1408981758304414 )
( 0.2713511156215234 0.1622598665310316 0.0468468533876093 0.2191268462717147 -0.027771535210029 0.1493110417186464 )
( 0.2826638889136251 0.1784841183141886 0.043807996545365 0.2320083340592531 -0.0325964960112616 0.1573355347244685 )
( 0.294694919496143 0.1948470036701905 0.0400447899038303 0.2445109562021469 -0.0371509158955693 0.1655521903260181 )
( 0.3081514017946009 0.2124761044883371 0.0350703755886314 0.2576617933186261 -0.0418335404598745 0.1744958916698465 )
( 0.3231909051342558 0.2313473928008863 0.0289113888786222 0.2715363754075626 -0.0465553601239995 0.1839771314776012 )
( 0.203508642389096 0.124494770277671 -0.0274045968007255 0.1832632918335807 0.0101277038893471 0.2543292083837709 )
( 0.2037012302131568 0.1208281925810678 -0.0231654766194071 0.1841852063389232 0.0078320720716847 0.2325644594781109 )
( 0.208823600823047 0.1159129000256095 -0.0137184609901747 0.1826725635769119 0.0058706913153095 0.2035371191312903 )
( 0.2118989699680433 0.1097474413193663 -0.0002122435659889 0.1787487976447927 0.0051834487467902 0.1772431717349054 )
( 0.2138452059968602 0.1041821149132141 0.013104225865074 0.1732768643573091 0.0056532813378864 0.1548019122813584 )
( 0.2160928128973625 0.1001915345716464 0.0254846765299426 0.1683824176478179 0.0061917574469375 0.1358339397068965 )
( 0.2181318139228663 0.0987327970119323 0.0362249345298282 0.1654136628346487 0.0058744225244779 0.1207561375960812 )
( 0.2212511831573631 0.0999056809364843 0.0438879689657452 0.1647460357290933 0.0044991586786781 0.1109799408144284 )
( 0.2265223080399016 0.1048029354334461 0.0497038658545279 0.1673037956549424 0.0015525439099204 0.1061019816814293 )
( 0.2332452297671995 0.113956300837154 0.0530954144535772 0.1735710407465107 -0.0030079182579403 0.1068053640380137 )
( 0.2417683680963941 0.1274046738222461 0.0538172778248962 0.1829618151340435 -0.0089445675978414 0.1134273786265349 )
( 0.2536391515986551 0.1443400689873543 0.052541986071916 0.195760155793667 -0.0158734174473395 0.1239435837768609 )
( 0.2668506563376205 0.1629655654085856 0.0488661664367525 0.211376714971246 -0.0231031797713326 0.1354687996966571 )
( 0.2809489457187045 0.1827089808374667 0.0436488522368574 0.2278468850287602 -0.0301145077374902 0.1470340625793521 )
( 0.2956806380279053 0.2025927132443028 0.038272730303528 0.24394484782741 -0.0362784417543086 0.1579024897581536 )
( 0.3109599084436045 0.2226238342183896 0.0324184215024932 0.2596817557850446 -0.0414563090677421 0.1682270962480919 )
( 0.327142355741927 0.2429695823332489 0.0259501919371018 0.2752552147252406 -0.0465052485398484 0.1790080958111415 )
( 0.3449676500714553 0.2643816439581919 0.0186829848980872 0.2911298933245951 -0.0514239606808601 0.1907636796845926 )
( 0.3643239971666887 0.2862513060365284 0.0105775708776558 0.3068558493429418 -0.0562237850022359 0.202335540100133 )
( 0.1936249896245168 0.1171785106917179 -0.0189629545928687 0.1855361879138585 0.0088010718036544 0.2463733687863469 )
( 0.1941590806563638 0.1122766004617285 -0.0111262761372533 0.1850251935022663 0.0074591762304011 0.2188932680783523 )
( 0.2008815650346952 0.1074877434460254 0.0004736138800932 0.1814662237578606 0.0062519378866044 0.1853689772870272 )
( 0.2059197792168832 0.1027807934828741 0.0142916984335289 0.1762202976645813 0.0059860235784179 0.1567269655517882 )
( 0.2097063721591992 0.0992978952209675 0.0274425941840656 0.1710044502395671 0.0070362911089905 0.1326178134969609 )
( 0.2131611052992659 0.0980080825537913 0.0376465089488312 0.1679789868148344 0.0070777234862149 0.1145071563797164 )
( 0.2165967598863579 0.1002515481096365 0.0454719551710448 0.167446465533887 0.0055844691529137 0.1016323674964609 )
( 0.2218757331871208 0.1058468235838826 0.0507532475640134 0.1690403604936926 0.0028876713597311 0.0955967996151222 )
( 0.2289353166368544 0.1155004341939723 0.0536570664394631 0.1743697190010569 -0.0015068667532785 0.0963640742549069 )
( 0.2383148091185337 0.1302885138282651 0.0536581565685024 0.1850017303091178 -0.007962569818992 0.1023835469162008 )
( 0.2512228392059778 0.149832515894408 0.0511233100748731 0.1991192620651474 -0.0153837787171831 0.1135342496450985 )
( 0.267200305431841 0.172005856477277 0.0470028978967376 0.2156793997612515 -0.0230732113248268 0.1286541099164072 )
( 0.2846042861245212 0.1957912648481395 0.0401597579799228 0.2357500652097628 -0.0314490713675778 0.143424395667465 )
( 0.3024396716669586 0.2200417772190144 0.0322321411416903 0.2563750718658357 -0.0391835058572114 0.1577752724770676 )
( 0.3206465678909053 0.2433198250285312 0.0250720101426982 0.2752435946856673 -0.0453280072467787 0.1710782750500392 )
( 0.3394071350641958 0.2667347286345186 0.0173698055472435 0.2940208952002289 -0.0507163951699782 0.183152280389016 )
( 0.3586802476317154 0.2902409994110814 0.0091732531286133 0.3129034651225766 -0.0561356183219402 0.1954347088413844 )
( 0.3803035773981991 0.3145260559651652 0.0006940539840241 0.3314744169289758 -0.0611593966672176 0.2078985239809307 )
( 0.4046207156155891 0.3397348920413561 -0.0082715437087931 0.3494816037618082 -0.0656922622563004 0.2199048012113777 )
( 0.1861120900961013 0.1092283184256948 -0.0077410702307059 0.1874695670004054 0.0092065927012517 0.2360754872474302 )
( 0.188835263990582 0.1044678551918732 0.0010315687956708 0.1856098398460313 0.0080170403308601 0.2030686836482773 )
( 0.1960504434468069 0.1007135628658496 0.0126427609651342 0.1803293145427572 0.0069792490971931 0.1653429041116159 )
( 0.2023502485062126 0.0982307193463708 0.0256514082073329 0.1755602464858241 0.0069824871499878 0.1356799890220432 )
( 0.2074235856079116 0.0974588612633801 0.0363426110148355 0.1726480430842549 0.0073243447180658 0.1125303583017435 )
( 0.2112172122257622 0.0989712317883643 0.0438786792831649 0.1718255506353319 0.0063089869985084 0.0964730012301272 )
( 0.2153985221633179 0.1042816479905062 0.0491013662517084 0.1730216356647986 0.0037551610575734 0.0869657955743458 )
( 0.2223679114118385 0.1143687103383746 0.0519188790236348 0.177502616449524 -0.000487255399345 0.085562208310376 )
( 0.2315417985444515 0.1289995953309344 0.0521371826822181 0.186248970569273 -0.006273774558734 0.0917325846717481 )
( 0.2444112547389759 0.1488084397936542 0.0496343503671256 0.2005513336777556 -0.0137877058963514 0.1029848134836787 )
( 0.2612772281951556 0.1731364276235794 0.0443658678742488 0.2195721835126843 -0.022519968668191 0.1185813295398171 )
( 0.2799306688814669 0.1997437818615112 0.0372346787462999 0.2413052999242125 -0.0315108809260621 0.1368497347984903 )
( 0.3006642735746135 0.2277646396987599 0.0288494117672811 0.2651478175001021 -0.0402190175822009 0.1545844100994121 )
( 0.3218099908631587 0.2554373701163532 0.0199399753491057 0.2890716711540838 -0.047940712392706 0.1707343459659329 )
( 0.3426668697391577 0.2820043403278827 0.0111118643082018 0.311926802659378 -0.0544463921447274 0.1848947541363213 )
( 0.3642896917994999 0.3087094921458805 0.0022354944576242 0.3346017940674745 -0.060192874845526 0.1978109130145213 )
( 0.3873770634440046 0.3359228421155418 -0.0066822945851237 0.3574522370239725 -0.0656800361595789 0.2100921329609312 )
( 0.4140488839484413 0.3640438257294365 -0.0158627342339397 0.3794140165387501 -0.0706315137243062 0.2215026570700896 )
( 0.445587860689188 0.3938070631167911 -0.0252467953443791 0.4000397574717975 -0.0744864071312452 0.2321342734391352 )
( 0.181481015659694 0.102526036627512 0.0030344319369086 0.1896494188843109 0.0096525584499721 0.2244923057741941 )
( 0.1860871786253267 0.0987261492329226 0.010931073212509 0.1865295217414272 0.0082321929593064 0.1870668135865572 )
( 0.1936181098078402 0.096226560722947 0.0220760427613805 0.181200693959482 0.0075468744437336 0.1465873223313621 )
( 0.1996894983334548 0.0956498622564655 0.032662179140714 0.1780175594337147 0.007329255574679 0.11699676809182 )
( 0.2039462620612831 0.0972007594087827 0.040127289007879 0.1765217129077281 0.0065172502869688 0.0953889241134822 )
( 0.2080561471689412 0.1015591525632013 0.0456092924509589 0.1777919950281221 0.0044117185079608 0.0820066488199506 )
( 0.2140158834923118 0.1100231449784448 0.0487517969646375 0.1819788157183409 0.0004233064455983 0.0772087887231674 )
( 0.2222998660813065 0.1236844198813314 0.0492503991548686 0.1892733148538721 -0.0052967211593957 0.0812785403549614 )
( 0.2341729024473366 0.1426849328734471 0.0475323137514419 0.2013598514092929 -0.0121981641145816 0.0922241455631872 )
( 0.2498521157150244 0.1668238431587041 0.0431445578131301 0.2192462738153955 -0.0201823363587077 0.107264957400495 )
( 0.2690887515072109 0.1952279932318653 0.0361185722432888 0.242852856027392 -0.0296291988151488 0.1262664607264879 )
( 0.2911352488292438 0.2266626363845933 0.0269442170044036 0.2705780485531556 -0.0399544391204856 0.1470525570641179 )
( 0.314018318793536 0.2578941127560613 0.0176172189398296 0.2985244785994125 -0.0488514406257177 0.1659508726549305 )
( 0.337682100048578 0.2886143900245606 0.008039288846184 0.3262935289817072 -0.0567377656376564 0.1827087903178729 )
( 0.3617277883565786 0.3193030452331458 -0.0020715287919386 0.3545051923839042 -0.0638009555263644 0.1967308189839387 )
( 0.3870829391447583 0.3502317548647632 -0.0115297421807444 0.3822763903145832 -0.0697432120932299 0.2092816596717862 )
( 0.4159990788081077 0.3824725719347811 -0.0208163396999324 0.4098998860826345 -0.0748210476021675 0.2203835024715198 )
( 0.4495901097155307 0.4158529429515045 -0.0300549809478682 0.4357833787442758 -0.0788483331391166 0.2299995532751723 )
( 0.4902099162521438 0.4519860733446004 -0.0392054159372556 0.4601433191979416 -0.0815275651844119 0.2389062554239691 )
( 0.178036155441732 0.0966270393858214 0.0115928059345909 0.1916279382003385 0.0090474697687101 0.211484525888232 )
( 0.1840383517861998 0.0943979940454495 0.0184876308034337 0.1886355485940536 0.0079986227584751 0.1707367187898308 )
( 0.1919627370914972 0.0936965648518417 0.0276649302056259 0.1848522497572244 0.0071006602571841 0.1290693800270098 )
( 0.1964642381936639 0.0944156439660178 0.0351175521230501 0.183065488308757 0.0061232383175826 0.100763191894257 )
( 0.1997842159318251 0.0977165343565641 0.040475193493227 0.1831301658042671 0.0043608100081961 0.0818479006278878 )
( 0.2044084399099274 0.1046635907378192 0.0440194753362458 0.1863079418923315 0.0010503122741154 0.0722488033894557 )
( 0.211840190593919 0.1164143611679208 0.0457424395790927 0.1927969219640934 -0.0039383416690686 0.0725799211666159 )
( 0.2215977070646057 0.1335136539372606 0.0449925578486366 0.2032793221875459 -0.0105793914875231 0.0815195398674523 )
( 0.236002820909929 0.156336948196634 0.0418453800345132 0.2193446964391888 -0.0185376828546238 0.0959226671793989 )
( 0.2534149508354477 0.1841422148838787 0.0356963935040463 0.2418876560068839 -0.0275267526711976 0.1140238665935104 )
( 0.2742288725293201 0.2161541233749715 0.027264243328358 0.2703039704087996 -0.0376774455510439 0.1352629396097653 )
( 0.2989569363262135 0.2515119197434699 0.0173754416954741 0.3029769190763312 -0.0481988386410463 0.1570556061995249 )
( 0.3245595338508275 0.286773897115781 0.0068798352115291 0.3362747940907425 -0.0574682665000023 0.1759513615464568 )
( 0.3520796717962028 0.3221536146901222 -0.0034932466159549 0.3698001803794311 -0.0656320273100042 0.1924417146452281 )
( 0.380400927649553 0.3577476492693582 -0.0137216149279544 0.4042447444993239 -0.0728980053320673 0.206444976231111 )
( 0.4100264461324348 0.3931761607321163 -0.0231388873976366 0.4377502802879719 -0.0786395354926181 0.217668720857658 )
( 0.4446072679644836 0.4305215100251381 -0.0321488557538764 0.4702502176687048 -0.0827589194484789 0.2267252469135188 )
( 0.4871493340715348 0.4711704611925265 -0.041025449842647 0.5012486207342868 -0.0856150108732732 0.234787553209462 )
( 0.5396483276481074 0.5157589085626083 -0.050230289585515 0.5303251226063761 -0.0875913357561875 0.242185196878877 )
( 0.1760825156214183 0.0917161803685445 0.0174621552662061 0.1943688555633729 0.0089313439085635 0.199712456222762 )
( 0.1814038811863335 0.0907677094776928 0.022506876983119 0.1921838510228395 0.007599263826898 0.1561257706261364 )
( 0.1883988183706364 0.0918332139457112 0.0294767307366542 0.1901221311446324 0.0057944372634837 0.1142248853314528 )
( 0.1923573448221487 0.0941256202931553 0.0348719675514361 0.1903936295692342 0.0040180554629319 0.0874508987914491 )
( 0.1960629504224627 0.0994398947830483 0.0388971365182476 0.1916808318601812 0.0013602839185966 0.0720849789125604 )
( 0.2014668566631424 0.1089124676408151 0.0413026494722383 0.195912095599176 -0.0028958489044103 0.0669847691830575 )
( 0.2097265548806338 0.1236373661175233 0.0418201560485216 0.2044388004250193 -0.008647550697685 0.0714893053676047 )
( 0.2205939585819671 0.143593154726593 0.0400496798311134 0.2191439300277656 -0.0161654100238209 0.0841491007495204 )
( 0.2356941806108853 0.1694162808597899 0.035528410891153 0.2404800198609461 -0.025174760306369 0.1013557017454253 )
( 0.2549976680863124 0.2006508744673198 0.0283270100068594 0.267547658752634 -0.0349424779025551 0.121403065869098 )
( 0.2784808048636412 0.2368015219915345 0.0189823158882908 0.3013572537644547 -0.0459901634424263 0.1445073428832474 )
( 0.3052118131377881 0.2758312613936153 0.0085967858542307 0.3394196852499572 -0.0564072855297487 0.1663879753980394 )
( 0.333873526166513 0.3154949841340992 -0.002414357956867 0.3789636816072584 -0.0658065501633364 0.1849226408758396 )
( 0.3653198185214727 0.3563675169932643 -0.0133318986687815 0.4201021996208757 -0.0742010930904745 0.2007110461287449 )
( 0.3973278416484401 0.396285915352857 -0.0230011709791415 0.4603859947039933 -0.0807615954625781 0.2128840253912557 )
( 0.4319730854620527 0.4366572199439443 -0.032041923500324 0.4992913647776117 -0.0858073129150631 0.2223197131788189 )
( 0.47414176759005 0.4814351055668969 -0.0412127456126448 0.5389626633928923 -0.089762172319058 0.230216280255944 )