/*--------------------------------*- C++ -*----------------------------------*\
| =========                 |                                                 |
| \\      /  F ield         | OpenFOAM: The Open Source CFD Toolbox           |
|  \\    /   O peration     | Version:  2112                                  |
|   \\  /    A nd           | Website:  www.openfoam.com                      |
|    \\/     M anipulation  |                                                 |
\*---------------------------------------------------------------------------*/
FoamFile
{
    version     2.0;
    format      ascii;
    arch        "LSB;label=32;scalar=64";
    class       volScalarField;
    location    "0.0024";
    object      k_LES;
}
// * * * * * * * * * * * * * * * * * * * * * * * * * * * * * * * * * * * * * // 
 
dimensions      [0 2 -2 0 0 0 0];
 
internalField   nonuniform List<scalar> 
13597
(
0.2479157376362771
0.2468201068372816
0.2425327001460258
0.2371289961362556
0.2329130341555419
0.2295352721442721
0.226693764309834
0.2238184645470665
0.2216161585724662
0.2198662071322613
0.2184136284083188
0.2178741687911099
0.2177104198441991
0.2181774761625963
0.2196059298413149
0.2224831155453964
0.2258612832432683
0.2284493835086851
0.2326419402727567
0.2510871006377
0.2499809466078932
0.2454383095953477
0.2422467734381396
0.2398152311773276
0.2371601022448669
0.2343840844371782
0.2321513998414931
0.2305312361923226
0.2280800187207465
0.2253286239084033
0.2227818448564048
0.2204362468169782
0.2190094379083905
0.2189446740643853
0.2200456522915451
0.2215364476767014
0.2234054085062183
0.2266280326606405
0.2523906881828496
0.2504526830228712
0.2456865468723313
0.2421216299405924
0.2384615010174045
0.235108039189532
0.2312000007641971
0.227809336403885
0.2251649840783368
0.2224033017774271
0.2202715155820019
0.2190563247312456
0.218907305236197
0.2199446890919451
0.2218978004022638
0.2241808335085252
0.2265419839915569
0.2292038074169409
0.2317081054318435
0.250754561438252
0.2480994146941122
0.2431686435441815
0.238621917405834
0.234637542312713
0.2316759111689002
0.2293361846589345
0.2285072277012335
0.2284711501766439
0.228932133199324
0.2304017830039035
0.23268031066199
0.2348771888690486
0.2381336243761864
0.2413131090628887
0.2433890137547099
0.2452277610888606
0.2468270099268515
0.247724307317714
0.2490253801360806
0.2451705023774005
0.2401072599521005
0.2368724218994458
0.2356207769381375
0.2364807199407735
0.238918375518375
0.2429880114821086
0.2471745135660379
0.2512753550742992
0.2555019566927317
0.2595343996277986
0.262857861237884
0.2660336496493028
0.2688154024251034
0.2706122652158999
0.2717119737954982
0.2722594208851381
0.2719997631158808
0.2469406836786602
0.2427263687072256
0.2393409418091997
0.2404742535940731
0.2442430764897198
0.2505724178836875
0.2580679242417267
0.2663998102063005
0.2741352203242946
0.280676549456683
0.2857314693048894
0.2888369414487718
0.2914212493971205
0.293409569460951
0.2951239254261932
0.2962161957880173
0.2970750820102161
0.2974173137108319
0.2968139199418699
0.2439570411331327
0.2412627917002399
0.2428762726074619
0.2502519534122156
0.2596022999214566
0.2707812203088775
0.281716217959797
0.2920260143771854
0.3009169976159359
0.3069804289440501
0.3111221160605859
0.3133584402032675
0.31506151613292
0.3165487007590046
0.3180604390196505
0.3195536906407828
0.3207374729208967
0.321603112356366
0.3218994408353813
0.2427457556099554
0.2427949109841246
0.2503778317147515
0.2637438133942882
0.2776377497161428
0.2916183698229591
0.3038007246446518
0.3147345930147449
0.3235805033469365
0.3280720156801182
0.3315636724560382
0.3342585311227524
0.3354958187424038
0.3371093968901945
0.3389211851090163
0.3412634212985467
0.3435465028955317
0.3458645272534354
0.3481664581685689
0.2426983043157663
0.2463646752231219
0.26006255984713
0.2779689507000485
0.2950640805707694
0.3103085451798603
0.3225644434878659
0.3327891265664422
0.3405844717787576
0.3457091482134867
0.3488885093579068
0.3518018532360434
0.3535222445253185
0.3560934170162135
0.3594622208552974
0.3634116889270732
0.3678097066533665
0.3727620032612148
0.3783232215078451
0.2436090248210121
0.2517003851540603
0.2704297917018483
0.2914365478773569
0.3098312991757213
0.3255821941637217
0.3382464293402184
0.3481988639225228
0.3553938725607066
0.3602883829255059
0.3635041625934112
0.3667126638140062
0.3702669519298983
0.374819128655397
0.3807801788475425
0.3879187962518939
0.3959089918553634
0.4045416530340729
0.4140826134644777
0.2449561427770538
0.2563484203171183
0.2798617754629606
0.3028048222469968
0.3211616435541913
0.3374879469547621
0.3508787506120276
0.3612032333642019
0.3682730630444444
0.3726070607019834
0.3767326479210398
0.3817136393231515
0.3877679020269647
0.3951900354215441
0.4045610016126008
0.4158467917569612
0.4285213661923378
0.4415489000388001
0.4559030435492469
0.2461070075210399
0.26074939782126
0.2883731689853196
0.3121615464545903
0.3308358763097251
0.3468951129590548
0.3604397189150477
0.3709643948931898
0.3778821913579164
0.3834123012241883
0.3894812410975331
0.3975179125709031
0.4069601145881126
0.4182352507331708
0.4321177292511885
0.447923079355677
0.4652215595455895
0.4838485258506881
0.5045124999152909
0.2470544654501212
0.2653615026430473
0.2955106047324107
0.3197555904545806
0.3391138730924298
0.3548296276376414
0.3678847061605026
0.3787311434562959
0.386946149595541
0.3940565842446247
0.4028457441008838
0.4144849431813818
0.4280795446485626
0.4445924418127365
0.4633245224525562
0.4836708657204143
0.5068479141612687
0.532535077174416
0.5596789093211221
0.2475591812632381
0.2685256061994874
0.3011685258480059
0.3254703319464043
0.3452737382857159
0.3615842739532775
0.3743723447455514
0.3847906315246721
0.3947117147721389
0.4047312845119979
0.4168627642379093
0.4329816187481258
0.451506208532334
0.4729426216595958
0.497164796192252
0.5239539558761053
0.5543340563679505
0.5872013415922784
0.621665144358051
0.2477308355384179
0.2711969654147694
0.3064718410900309
0.3304592289704144
0.350247717293743
0.3662943253528624
0.3793779633194974
0.3906305134583621
0.402563103426186
0.4159817470119102
0.4323466108198497
0.453351119432945
0.4777996761235862
0.5044112442547902
0.5347014133245733
0.5691768400364964
0.6072278245436753
0.6483149426901152
0.6974946827176737
0.2473310245893853
0.2730021183272517
0.3094855758506885
0.3341156392764507
0.35413352542224
0.3695290842411906
0.3832760053857008
0.3967149890560604
0.4111628957938971
0.427731667556206
0.4493257003566673
0.476480251081867
0.5065544675260943
0.5386684624087801
0.5754564539674706
0.6175192929434827
0.664813439296256
0.7209198321942597
0.7962568851710705
0.2465398098680003
0.273967261997527
0.3116356104840065
0.3366381917575046
0.356544750200076
0.3724164899836495
0.3872492117451935
0.402387026193364
0.4194532929956082
0.4403533233095233
0.4663264704591408
0.4992095270164306
0.5355157566138903
0.5743764230852267
0.6187771866564707
0.6698478730049212
0.7303149802365747
0.8107497849805826
0.9142361551828274
0.2470518194013949
0.2755368464745443
0.3134026710895299
0.3380277769751256
0.3578709079555286
0.3747671140100729
0.3909441657741463
0.4079431819276512
0.4284093560461167
0.4536514920884067
0.4848007079397199
0.5234133259338665
0.5658990839672505
0.6123639127990103
0.6655396182052251
0.7273912609149483
0.8087330393408729
0.918793649371184
1.026465097182175
0.2475871297150143
0.276151326364825
0.3140444679077425
0.3389319749421244
0.3586420966880546
0.3765944158102648
0.3939965174435906
0.4133504619292982
0.4377205823936171
0.4675444564792587
0.5052166413205206
0.5490760421020838
0.5982379262624165
0.6533873994686443
0.7154256270228264
0.7936569842830492
0.90347883914946
1.0416024221437004
1.1239776456537829
0.2469716556242062
0.2755882486019262
0.3139967969333217
0.3390171442680652
0.3591298323323132
0.3784636897588944
0.3974439946048351
0.4191636729082383
0.4469894949935923
0.4818586886176981
0.5256596100811869
0.5758271836228653
0.6322124375270711
0.6948581805016502
0.7713719334432434
0.8712884521520415
1.011816467677687
1.1675884358512816
1.2007726183021978
0.2462652424877811
0.2747310632335725
0.3125013427821838
0.3374215565372303
0.3588920786057425
0.3799631258080654
0.4007916067267958
0.4245810371409144
0.4561834204302673
0.4960237292135508
0.5461814737209646
0.6047680646178235
0.6669858908205373
0.7358556528375935
0.8299608966158857
0.9605673839983117
1.131730276420533
1.285649897144423
1.2156420463066695
0.245607243042941
0.2736573208553914
0.311196437878077
0.336171743904982
0.3587287706072326
0.3817786515901163
0.4046851166049647
0.4303663175197267
0.4662700261125141
0.5110455060668403
0.5663762303313201
0.6301753891870486
0.6985844374119633
0.7810169086138741
0.8929550505439939
1.0569122656076555
1.2544412663468376
1.385835176800454
1.144383783709691
0.2448179282200994
0.2728436526594468
0.3102848191144233
0.3350683746731714
0.3581671920928083
0.3829974656344038
0.4085136936472573
0.4369760532070752
0.4770818952365514
0.5277098047708524
0.5875559411838431
0.6550896546962445
0.7305938843499206
0.8279458321901435
0.966654224585936
1.1619338857583672
1.3743780438418356
1.425844255367891
1.0572994325185094
0.2432760117428672
0.2710663918936629
0.3089984248475071
0.3336382376238647
0.3577073907080023
0.3838210465593945
0.410912454606867
0.4426375351818577
0.4863441934376108
0.5415183690301567
0.606660677897002
0.682373871351177
0.7677974177095788
0.8793800661095439
1.0459913747891971
1.2706153550619883
1.4850878722568048
1.4166217134948385
0.9722358950515542
0.2414908934954886
0.2688336560397739
0.3067249421257196
0.3318865522405049
0.3572410080499241
0.3842889431878539
0.4129755230054394
0.4478881742576593
0.494484719713147
0.5534319542300012
0.6248388081074634
0.7087341990175807
0.8046229630877952
0.9386665481886984
1.128838777658708
1.3746772827609814
1.5693665658627156
1.3942877344645073
0.874015908705058
0.240179487627537
0.2671980022563758
0.3044149945177748
0.3301100939288983
0.3567222693120002
0.3849587268214192
0.4156917280485263
0.4532581464954369
0.502998568198468
0.5673942607022084
0.6436948715982376
0.7332315725500109
0.8404012153683651
0.9952469900740156
1.209679616970402
1.473453763573899
1.6006183809352486
1.3319649347312683
0.7992392822440443
0.2384086199689695
0.2651042893000328
0.3025602917948802
0.3291429164838337
0.3562791436972877
0.3858768252448772
0.4191215996439665
0.4594707195321927
0.5123903734476482
0.5812692643072981
0.6617527727809008
0.7559841161342249
0.8749632907101438
1.0458213735598756
1.2876304708835125
1.5597720961250998
1.6128977606395325
1.2589600229548863
0.7357724048189591
0.2365465199985023
0.2625484151043816
0.3004237747681162
0.3286073261191126
0.3558455854032387
0.3865404854781371
0.4222472978965171
0.4647423046545368
0.5206874398615077
0.5945855639794496
0.6805017846163738
0.7778801369332993
0.9071364571482406
1.0969593940257103
1.3721770285576835
1.6429784276831445
1.6432441915119471
1.2107336676991751
0.6811346374870502
0.2348342393124796
0.2602561890024361
0.2978283272735869
0.3274672087504496
0.355594528016903
0.3870524565872535
0.4242140658329497
0.4687341002895641
0.5279283780653208
0.6060730413528433
0.6963840183222282
0.8014488705974261
0.9483832027936976
1.1526546681299483
1.4480480096831885
1.7066509777816077
1.6488080540726415
1.1665004161163637
0.6465681275644236
0.2327118597057165
0.2577110555501109
0.2956208454757469
0.3267234762993503
0.3558533775584389
0.3879730130970747
0.4261084998933165
0.4731822960878105
0.5357523931013447
0.6150551644229664
0.7080961793539695
0.824874130023334
0.9852642728797129
1.2061931373774404
1.5128380020565504
1.707350761267377
1.5905882288062874
1.120988041490684
0.6256014913002158
0.2299718738233835
0.2547824890614965
0.2938646668171772
0.3262227720062817
0.3562966274976122
0.3896751485121166
0.4287716149762218
0.4782226556838567
0.543727368863388
0.6245827523671157
0.721102268733578
0.8472426096751253
1.01247545989938
1.253699388532214
1.5711587920466947
1.698423693876074
1.5285256639291855
1.0799630846033574
0.6104222345524644
0.2271448477024573
0.2522099220571723
0.2921647319662795
0.3251598091442074
0.3564811750897342
0.3910204589754174
0.4314912617281741
0.4834078371129065
0.5509093664696239
0.6340777395074474
0.7343987134765566
0.8673099181779961
1.0409505748781014
1.3089967631826287
1.6252256178899522
1.7194693518051607
1.5134769177070777
1.0453321598463294
0.5919715401861405
0.2247311474331366
0.2499539737780138
0.290759958044343
0.3243900059841058
0.3563278477272005
0.3907769863885064
0.4325022098937171
0.4873735162651812
0.5570336153063707
0.643281587751382
0.7474432538463508
0.8855963858257899
1.0659927581051882
1.3549729172464795
1.6766221209831125
1.7502426966041025
1.515321428545205
1.0206669785162774
0.5714848888392617
0.2229243409303062
0.2482938790192933
0.2893648603190684
0.3232087218099969
0.3558761462947831
0.3905527543310244
0.4325130912103307
0.4896595020049262
0.5619525259560226
0.6527853670369608
0.7621366939964094
0.903440128303411
1.088417020818631
1.388348144098735
1.7214553027701796
1.781913225271709
1.5201874725969993
1.005617352371396
0.5587097749624986
0.2216621506436741
0.2472859939813852
0.2880376095067914
0.3216101107914004
0.3553653621981247
0.3911282100731125
0.4332338676875446
0.4911691873981724
0.5660005189519254
0.6603053118450665
0.7735421070989765
0.9184670919342116
1.1117694606144422
1.4221899255791293
1.7547633582234503
1.799070880399775
1.5189180617654316
0.993646417418556
0.5502735178558896
0.2201879137662925
0.2459836994051449
0.2869786410306356
0.3205862022461265
0.3550666844892149
0.3915877260897966
0.4339557305753623
0.4927252808229804
0.570131733883377
0.6656405676155336
0.7817649940916246
0.9315194480292972
1.132960165865654
1.447572250187748
1.7804501043921592
1.81426441321758
1.5123671443466988
0.9791788852969232
0.5406063823952293
0.2182205735956288
0.244345182130404
0.2857450471501226
0.3196483612586601
0.3550746536589461
0.3926529454296161
0.4357863688996715
0.4950000940785637
0.574085899238152
0.6707554134006702
0.7895552985371757
0.9443069979079644
1.1520836480749732
1.4707102965181251
1.8021687470227248
1.8224774596928612
1.5117064389534944
0.974609523937539
0.532389976610376
0.2166957127139927
0.2431965790829548
0.2842351601698722
0.3187407631251803
0.3548262198993857
0.3926860019473492
0.4375344479183655
0.497474056378466
0.5782337309895482
0.6753840777547356
0.796509777079225
0.9560590117406496
1.1741973565505843
1.495737591858979
1.812251559964114
1.8236246160323824
1.5058863671961304
0.971418504681122
0.527631692462999
0.2155623836404579
0.2420283913508568
0.2828206501625987
0.3179156194453252
0.3544809799036816
0.3919066147447033
0.4374567428951949
0.4983156266032887
0.5814002767173639
0.6790650493467548
0.801704787425722
0.9650849236193172
1.1955530390336957
1.5232655939707491
1.8166929631869413
1.817484363198928
1.4914515744587162
0.9609838250781462
0.5255239124475566
0.214076389387235
0.2405214650902024
0.2817405694971465
0.3170757573274894
0.3542208137027641
0.3919418688892444
0.4371013906099832
0.4980608048226636
0.5823508447453368
0.6807022582234262
0.8045385144693697
0.971036355408233
1.2079282604485833
1.544387012674801
1.8228161679924624
1.805540184816124
1.4817199675319377
0.9551421206058104
0.5249039493114136
0.2124639610595094
0.2390143432027195
0.280978194457947
0.3164840949133071
0.3538013504131256
0.3921927617004802
0.4373535313834049
0.4986469038886278
0.5841647446378723
0.684226693426942
0.808103676365292
0.977883785022846
1.218410609592229
1.555534211172984
1.82196451138646
1.7898277402927791
1.468974581392344
0.9482289021759034
0.5247030098235693
0.2111228472861144
0.2380730839828547
0.2804647804639384
0.3161605637543014
0.3530271480618463
0.3922250085061136
0.4382704854460862
0.499856078929868
0.5865645673663201
0.6899681502386206
0.8138266196165209
0.9848494818806178
1.227266171631939
1.5598229149874046
1.820472357521243
1.7819836407689162
1.4552637027203814
0.9370938517418624
0.5223701166784416
0.2099176215613233
0.237480259510977
0.2796668052868564
0.3154012814116049
0.352546218416814
0.3924702685024995
0.4390895206523115
0.5000654917558377
0.5861689774485451
0.6925460458231006
0.8184059822173719
0.9883793352771824
1.2289413000931106
1.5664270278805796
1.8304022870235128
1.7809486828062109
1.4441146102651348
0.9273809776770048
0.5167582228206797
0.2090803096350003
0.236350970636456
0.2781879427066669
0.3138732807424859
0.3520160201932514
0.3927355055085638
0.4392169142557171
0.5000439610567705
0.5868891931646597
0.6956055110497258
0.8225839758444781
0.993348203053198
1.232858627788323
1.5734797588364646
1.827797590721091
1.766688648101183
1.432977520187705
0.9215075593681644
0.5139089907942169
0.1795940380378216
0.1815311048012465
0.1866775340367313
0.1950344725362485
0.2030192503545895
0.209362954979849
0.2148639793722738
0.2199161687660961
0.2239463819584027
0.2264901053500161
0.2282735634102858
0.2298635644815942
0.2317157848197538
0.2327656306631498
0.2327902639386615
0.233065581376805
0.2336920080120882
0.2333437968072117
0.2321845430470607
0.1726187128591599
0.1738728546851833
0.1784106439922445
0.1867440550757109
0.1935916155817812
0.1996266809302392
0.2051035282640681
0.2096744116723554
0.2134961079384162
0.2171763743278315
0.2201266926222218
0.2231466354655328
0.2257177148696619
0.2275323546796416
0.2292252175423136
0.2305423338706287
0.2320248713737678
0.2335986301288203
0.23517708801769
0.1672416692225559
0.1684827371667558
0.1739551950422748
0.1843834607678772
0.192162969788508
0.1991800910020912
0.2060714801381134
0.2120735091226806
0.2168084069801395
0.2211069536428891
0.2247121407228684
0.2281040725549688
0.2309204853477228
0.2334156628895135
0.2361668776679811
0.2387601931048578
0.2409087391013117
0.2427784109806837
0.2447038068208789
0.1640240265467285
0.166044934285367
0.1744005630843931
0.1872316096784332
0.196274599014637
0.2043544152867595
0.2112861128927652
0.217032096252433
0.2214112930743225
0.2248152904697684
0.2277527785362661
0.230759273052927
0.2340239739484886
0.2374678975556959
0.2405541470222722
0.2433731129735745
0.2460061428275929
0.2489069967060508
0.2524237317064453
0.1632417164432564
0.1676224028649249
0.1787773490958274
0.1932279512834959
0.2035467687808135
0.2117322745605475
0.2180184650023998
0.2225763158202242
0.2258552256690094
0.2285707905194907
0.2314802459298088
0.2348995200351644
0.2392409404621282
0.2443572269321949
0.2489923978442672
0.2534673915419614
0.2582014115928934
0.2633045367592592
0.2690958573170121
0.1649071317123114
0.1733148892821836
0.1875709444713548
0.2024524069159568
0.2125631179108914
0.2194653730761185
0.2243046731948255
0.2278205921361594
0.2306917842651382
0.2336587607377148
0.2373020326665117
0.242293354953204
0.2487141122796313
0.2556162160006598
0.2624404028552596
0.2692791653449222
0.2758071198523936
0.2828775106147549
0.2910546563279135
0.171482367690224
0.1826606185358125
0.1985442435108987
0.2127774630846785
0.2209486037140458
0.2257687284466064
0.2293996161097806
0.2324461306464723
0.2356510667224237
0.2395322607021056
0.2450497570799852
0.252921572105942
0.2620003627080876
0.2710622526195484
0.28016673936612
0.289242281237321
0.2979405084912824
0.3072452893059559
0.3173928041528931
0.181367403741947
0.1940477395973277
0.2099336550452028
0.2215487606685361
0.2273117521753104
0.2307468160381361
0.2341383808478239
0.2375113524055682
0.2416771527844591
0.2475854096892134
0.2562124450219293
0.267420429287404
0.2790258678939612
0.2905671661057827
0.3018265475204235
0.3130229009414405
0.3242540980084516
0.3362293825903996
0.3489779317744932
0.1937277372356439
0.2064170836390673
0.2196915356299498
0.2280397349699279
0.2318438000314074
0.2349824302672237
0.2389163033747148
0.2437991192329632
0.2504076057356726
0.2592173458208766
0.2709128723927146
0.2849575383957806
0.2991109706681864
0.3130097830213227
0.3266376735246697
0.3403044101112177
0.3544967288432379
0.3695037048006194
0.3852077829473171
0.2052987654295336
0.2161960051204919
0.2266991575890119
0.2324221870467421
0.2349076789231134
0.2388623545804506
0.2443500272740023
0.2513406810785599
0.2607094295520806
0.2732327249365184
0.2880411393974693
0.3043133114464535
0.3211686031687532
0.3378689204052478
0.3544727994858865
0.3711264946975711
0.3889590825741438
0.4073200448634784
0.4259003733573717
0.2146932022156839
0.2230472269559335
0.2305567056579735
0.235171505248397
0.2385577794645684
0.2437103511300159
0.2503288025980237
0.2597992385951941
0.2725539900803831
0.2881644971452604
0.3058419836535145
0.3255707778475399
0.3455232926566671
0.3653441735434458
0.3854833392474421
0.4056136346585893
0.4268124232527491
0.4489580941236186
0.4716197896114683
0.2223622567867766
0.227585671123627
0.2322753294039447
0.2369698051619424
0.241766440801517
0.2482942928641957
0.2572428575790811
0.2702808052300975
0.2864167806769039
0.3046612070830674
0.3260207585870646
0.349099693590516
0.3716315653205391
0.3946622520780047
0.418647259689738
0.4432050539296034
0.4687222962545531
0.4955049006437592
0.5236626083088672
0.2269811327853339
0.2295448167219453
0.233581254305225
0.2384899205949632
0.2448167275935705
0.2537303393256158
0.2656267302980595
0.2815622601107145
0.3010288869108284
0.322689600699772
0.3471124081089251
0.3736701033013683
0.3994894541874686
0.4259734659370585
0.4543752060955075
0.4839480270522536
0.5151242010840856
0.548143074698705
0.5831112021769357
0.229428097166472
0.2300314010016704
0.2344206564306621
0.2403384559120311
0.2487314755814393
0.2601841037724544
0.2752115461140912
0.2943212520256533
0.3169346339687978
0.3415414593223549
0.3686869042893564
0.398431452573232
0.4286309771447221
0.4591672710214214
0.4928324493669582
0.5293449425839608
0.5665390806272148
0.6061097924856812
0.6494718681551125
0.2303429406690288
0.2296616992571163
0.2344774320270917
0.2422272976192999
0.253170647315551
0.2673976705110477
0.2855747557389214
0.3073465558052271
0.3323469376887482
0.360171155860629
0.3909726163320299
0.4235295113454461
0.4583989910992831
0.4952018832943268
0.5341059691415789
0.5773369110712262
0.6223908437020252
0.6712529320410848
0.7316698547305659
0.229986774182758
0.228717355188829
0.2349023417880643
0.2445220511604257
0.2582290604072048
0.2755238099745749
0.2962893130354678
0.3201244032669583
0.3471419774327359
0.3788013498107492
0.4128622925661058
0.4496719872506963
0.4902348699202618
0.5335817893940416
0.5783608125510624
0.626621762901599
0.6820015443162829
0.7491045138017677
0.8355711285122878
0.2276301937227701
0.2268813776343255
0.2360833429881767
0.2473768079836452
0.2636680570333491
0.2832918202446371
0.3064808038930587
0.3333138849239627
0.3628657737193472
0.3971006658807235
0.4343799744322785
0.4769612075241514
0.5229852234245536
0.5717499328032907
0.6239443857813693
0.680883503074798
0.7500635524388417
0.8429206791516585
0.9523792565695236
0.2235079966831305
0.2243824199809158
0.2375025025974745
0.250724119153368
0.2688474478055642
0.2910896636968837
0.3169096736084068
0.3460081937738882
0.3787359470948911
0.4149190438399216
0.456441563860667
0.5050836919566809
0.5567487605448018
0.6120417488049245
0.6715936921933868
0.7415773843531677
0.8320520826497219
0.9573515963236382
1.0704503493368134
0.2192284147434787
0.2225585128099335
0.2382628163495036
0.2544860211219436
0.274482830507035
0.2984180933972158
0.3263869720033061
0.3576658815452716
0.3934703554160841
0.4327170054532657
0.4787377369551711
0.5325012216257125
0.5912301148259217
0.6533319107988826
0.7212921380054833
0.8099437320123092
0.9296949040039896
1.079563861447416
1.1580379181265836
0.2158833701695566
0.2218492987100107
0.2394641497675763
0.2582415563150337
0.2803801810816412
0.3057995395458459
0.334791646022806
0.3682923062461596
0.4070947385407555
0.4502806149539063
0.5022753746741168
0.5618154227595991
0.6267224672024972
0.6965350437387722
0.7760323828899911
0.8858769510158615
1.040982316850429
1.1942231781082815
1.209877163143752
0.2134470305964489
0.2209516190001604
0.2413155489139116
0.2622244035670991
0.2860972826700838
0.3131563471918735
0.3443069380630025
0.3797797033240944
0.4198715634629205
0.4667309457424557
0.5249486413468893
0.5918265850595175
0.6624366709063934
0.7424811726909009
0.8396135650155753
0.9741905728259296
1.157594149891911
1.3018050660451193
1.217436421982624
0.2108996778486517
0.219795711611457
0.2437719527096797
0.2666408942017123
0.2917728107046378
0.3198244839887862
0.3535552557394346
0.3915501084025284
0.4334471885156987
0.4836274058463664
0.5464626581842681
0.619660761865828
0.6973313519186094
0.788095396016647
0.903122714079564
1.07246380701027
1.284280599980104
1.4075160152613402
1.1407212503767197
0.2091778277196737
0.2195398490323847
0.2461562812661328
0.2705857959692931
0.2969367021698683
0.3267466273101982
0.3621281436362717
0.4016121454031357
0.4474305687858287
0.5024946596514841
0.5698622367619732
0.649369162681561
0.7361448948095546
0.8375683634631255
0.9778795488464654
1.1844135647916536
1.4055322914541977
1.4301209710366134
1.0368317788434334
0.2070127278951154
0.2194689993699745
0.2478538017613604
0.2738401808949466
0.3025051038550939
0.3339001906734455
0.3698928044866644
0.4100385079356212
0.4588914162139624
0.5202111572101117
0.5926200835666505
0.6782931381764484
0.7749170108626215
0.8901395497763017
1.0601136888099347
1.2974683461668095
1.502033759256141
1.395818918571637
0.9543792307838128
0.2041284506236042
0.2189453944382956
0.2500988551112088
0.2775803250810049
0.3078654274871524
0.3400066438901211
0.376146484883972
0.418166453846274
0.4697152653700797
0.5362939344225158
0.6158234135569263
0.7073386009958588
0.8122121280282577
0.9490494540873828
1.1457267952814765
1.394477463097211
1.5672001398622095
1.3783169067575862
0.8728737834024654
0.2023838455152285
0.2186932978015754
0.2525946658719694
0.2815466266251061
0.312080950501298
0.3452010520099967
0.38257195730988
0.4266677237413916
0.4816204416833823
0.5522450290379776
0.6372264277852058
0.7353294991278486
0.8466113240229779
1.0039156165508976
1.2283372372708237
1.4804665821413572
1.5739402191459964
1.3062711497477295
0.7943103599932124
0.2012606851121582
0.2188526186609138
0.2545729202583712
0.2849329778496992
0.3157878954370196
0.3500738283539905
0.3898824059814746
0.4352438187944145
0.4927461849053545
0.5661342405142354
0.6567107709052711
0.7630525489676717
0.8832335034553018
1.0543359778692072
1.3014419566205184
1.560408715598545
1.5849247947142846
1.2355110748871168
0.7262366797737987
0.2006610520226638
0.2194796761491147
0.2563995330498916
0.2879486183234394
0.3195392891873885
0.3549549540833609
0.3958285167927671
0.4422096125755283
0.5022276138332902
0.5792587364089647
0.6765265943972747
0.7884455564200392
0.9219300725553842
1.1116761050513364
1.3821011204798594
1.6465503741460012
1.6225783447648665
1.201431154778091
0.6818145326524194
0.2007469096544859
0.2208475696474753
0.2588016379630546
0.290422203676116
0.3228408720911774
0.3591487770697604
0.4003844305193397
0.4490653834163134
0.5117039932442314
0.5930730657983093
0.6932081080489295
0.8098944890321249
0.9591631082572386
1.16548762415397
1.449444706844228
1.6937294171190946
1.6216958522064011
1.1641201702297697
0.652102850395827
0.2005166814371368
0.2219350436194924
0.2606604319710405
0.2923494997677506
0.3253992522738463
0.3624326065446597
0.4048295628818129
0.4566840719015052
0.5206488078050848
0.6046235817764593
0.7092738406937272
0.8351252311391506
0.9985439802822368
1.2116747107562331
1.504763572320796
1.6968301907782104
1.5606890424056792
1.1054321264633753
0.6222300674011277
0.2001005868145152
0.2228150270260372
0.2618756012443639
0.2940284038569528
0.3277106454728483
0.3652622839722152
0.4086281668002952
0.463735706050069
0.5293412612701786
0.6147825156180206
0.7240897413822982
0.8566524805989268
1.0256241142348126
1.2528185747238971
1.5660203371220878
1.7031424371409565
1.5014825811719763
1.0493093848493702
0.5954776293035473
0.1995329077839683
0.2234984412401252
0.2635947034762091
0.2960650374587431
0.3305187340911626
0.36845202882903
0.4126009138707146
0.4695867248095146
0.5383629318609544
0.6271029192862264
0.7387322644450537
0.8748327984306927
1.0482393069496263
1.297349887393166
1.6243270417093283
1.7277084633437547
1.4884351963384947
1.0149620195818088
0.5724713118376106
0.1993149719265914
0.2244638410882629
0.2658989049876138
0.2981935691171726
0.3332719204582692
0.3718428439337751
0.4166839828481291
0.4737952611949164
0.5450285339510694
0.6382177163774831
0.7537019871435712
0.8944950152357917
1.075959763785207
1.3439445052332504
1.67260230973101
1.7594710529672446
1.490456938250401
0.9906072647803116
0.561151036949831
0.1998902769124895
0.2252179956274655
0.2673534095137458
0.2999793612053583
0.3353082415079694
0.3746862798592101
0.4205659236321797
0.4777039875722428
0.5504825230770439
0.6455826847594618
0.7627218231082835
0.9102909951873742
1.098633910599286
1.382292878068449
1.7067224553953335
1.776722189931877
1.4942073458833405
0.9730640296965948
0.5491593879337632
0.2005446147121133
0.2258794268308576
0.268554175078237
0.3021463336900402
0.3379080092484658
0.3777546958472005
0.4238196404316002
0.4815795026633387
0.5577228981218246
0.6544935302678233
0.7724992762458355
0.9252789197754892
1.1150211500351963
1.4092954395419608
1.7343302869486676
1.793821631805586
1.4983792507388611
0.958725841065724
0.5354375219325996
0.2013195392512229
0.22706266077943
0.2704520811741559
0.3046927644437749
0.3404370150300108
0.3803090988445109
0.4264872732128305
0.4853812790310988
0.5643246134738061
0.6627441126186852
0.7842126753757066
0.937919794677555
1.1274254262386627
1.4347768617971026
1.7686810890334477
1.8125610037958704
1.4913839878423576
0.949002654839656
0.5306351223990079
0.2022519001271805
0.2280953046698114
0.2719987820007846
0.306446404766458
0.3414703094155156
0.3820657793227154
0.428755948732429
0.4885504135571941
0.5691236550693225
0.6679775899370006
0.7906414127048953
0.9480760016306544
1.145253620906714
1.4603940954441346
1.7931331467057248
1.822951539128664
1.4872743764490373
0.9463001313863912
0.5303966460324472
0.2033086884656657
0.2292518229382861
0.2726497637909672