/*--------------------------------*- C++ -*----------------------------------*\
| =========                 |                                                 |
| \\      /  F ield         | OpenFOAM: The Open Source CFD Toolbox           |
|  \\    /   O peration     | Version:  2112                                  |
|   \\  /    A nd           | Website:  www.openfoam.com                      |
|    \\/     M anipulation  |                                                 |
\*---------------------------------------------------------------------------*/
FoamFile
{
    version     2.0;
    format      ascii;
    arch        "LSB;label=32;scalar=64";
    class       volSymmTensorField;
    location    "0.0024";
    object      tauij_LES;
}
// * * * * * * * * * * * * * * * * * * * * * * * * * * * * * * * * * * * * * // 
 
dimensions      [0 2 -2 0 0 0 0];
 
internalField   nonuniform List<symmTensor> 
13597
(
( 0.169045672193113 0.0450760297129085 -0.0281808753292402 0.1616112329308912 0.0686859194643012 0.1651745701485499 )
( 0.1741245390526654 0.0477667575264151 -0.0305397454716869 0.1600331852398344 0.0672679394020281 0.1594824893820631 )
( 0.1818668009979814 0.0526681740920719 -0.0335062783689899 0.1541919710306618 0.0647807874757803 0.1490066282634084 )
( 0.1909698366305697 0.0581772504486612 -0.0359176375274034 0.1462652207347107 0.0610230044537345 0.1370229349072307 )
( 0.1983817573681282 0.0623993162506919 -0.0376664935668201 0.1395941650077845 0.0568834720374045 0.1278501459351709 )
( 0.2044096499540927 0.0658095297532086 -0.0383874972878178 0.1345262490595795 0.0528937119549368 0.1201346452748717 )
( 0.2105903930673692 0.0688848252371172 -0.0381001934809105 0.1298278154655852 0.0488311262698625 0.1129693200867135 )
( 0.2165943291754784 0.0714894607536164 -0.0376850826334519 0.1250445304312445 0.0443399199331519 0.1059980694874099 )
( 0.2225704860897219 0.0739184174127479 -0.0370144520493999 0.1211858353724443 0.0404076268372175 0.0994759956827659 )
( 0.2284353888097899 0.0754909384111717 -0.0362417594290424 0.1176042209260951 0.0369076646495742 0.0936928045286376 )
( 0.2348618104511018 0.0765667479047666 -0.0351494209721087 0.1136418067648539 0.0335356132488678 0.0883236396006819 )
( 0.241979117162118 0.0770855245108545 -0.0337868999729806 0.1101041137437284 0.0308073981166253 0.0836651066763734 )
( 0.2488137748380695 0.0762225307882305 -0.0322374934413211 0.1062884740519442 0.0291965246440401 0.0803185907983844 )
( 0.2558552318987958 0.0745934071222975 -0.0302485658987088 0.1025148396763812 0.0285249786848269 0.0779848807500157 )
( 0.2633181970561478 0.072500214213107 -0.0274499745031978 0.0990640487567062 0.0287201434603588 0.0768296138697756 )
( 0.2715193022758531 0.0695246865062974 -0.0240752929460073 0.0955262628924732 0.0300114143768725 0.0779206659224663 )
( 0.2795601372446481 0.0653614253839752 -0.0208014950622822 0.0912048918479471 0.0318522358946373 0.0809575373939413 )
( 0.2860109458161222 0.0601764322680818 -0.017008803149318 0.085704988255758 0.0341349628184319 0.0851828329454898 )
( 0.2932072664556285 0.0546783141539689 -0.0130596637790394 0.0811883462515429 0.0365034346349117 0.090888267838342 )
( 0.181513726270602 0.0479760812086131 -0.0342938665417289 0.1758715851549119 0.0550714719539806 0.1447888898498862 )
( 0.1879262917137212 0.0508018995557448 -0.035101379976866 0.1749734321688091 0.0525910382106615 0.137062169333256 )
( 0.1965712598520979 0.0558576648547191 -0.0348125181575578 0.1697896512297658 0.0493488226553869 0.1245157081088316 )
( 0.2063401000277061 0.0616778622180892 -0.0329021195978446 0.1647845939116664 0.0450546148729351 0.1133688529369066 )
( 0.2121810161407153 0.0653565356591014 -0.030707932580713 0.1614747343335377 0.0407371885588632 0.1059747118804022 )
( 0.2160438711289956 0.0685807657438716 -0.0280457803588176 0.1588568558593759 0.0362508266554341 0.0994194775013625 )
( 0.2189450728367237 0.071952503656967 -0.0251663407777221 0.1562467257845389 0.0321860938883547 0.0935763702530936 )
( 0.221307722781223 0.0749832503135593 -0.0217791224900976 0.1542637716035403 0.0284176885599406 0.088731305298223 )
( 0.2241671761455626 0.0780064605718701 -0.0180174975029301 0.1522726324949991 0.0253341990566873 0.0846226637440833 )
( 0.224992306929967 0.0801536157665228 -0.014259986330731 0.1494646965975408 0.0231863367913154 0.081703033913985 )
( 0.2248908840961699 0.0819884213159088 -0.0097077461564125 0.1456250183351838 0.0221399013071132 0.0801413453854529 )
( 0.2245777550597813 0.0833324251660058 -0.0045191911026323 0.1409141067663759 0.0220546780085075 0.0800718278866524 )
( 0.2230218169995567 0.0833695146758025 0.001747380281434 0.1350979737147418 0.0233919602242959 0.0827527029196578 )
( 0.221626808897524 0.0827790209885437 0.0086803126699943 0.1283344252552493 0.0257632451198629 0.0880576416640078 )
( 0.2210416026848386 0.0822214324430517 0.0156233191896754 0.1216752618794149 0.0286248570858669 0.0951724835645171 )
( 0.2208889465637211 0.081549952370255 0.0224682249194949 0.114956023154555 0.0319620074522433 0.1042463348648141 )
( 0.2206819590980734 0.0802940982063692 0.0287406769549724 0.1081751229030499 0.0347815528598012 0.1142158133522792 )
( 0.2204302847794895 0.0785933422144547 0.0349316701043003 0.1009357154626783 0.0372123152120165 0.1254448167702687 )
( 0.2215869615148819 0.0774745479041121 0.0402608833494313 0.0943146644861437 0.0394199039223141 0.1373544393202553 )
( 0.1898095503689634 0.0494973824965853 -0.0296300037170724 0.1863331320619646 0.0421765343683599 0.1286386939347711 )
( 0.1941816539879919 0.0507790458764825 -0.0266827881338994 0.186260047878435 0.0382266825597248 0.1204636641793152 )
( 0.1990610049693727 0.053745564857669 -0.0219723868832221 0.1829443941352413 0.0336401265272301 0.1093676946400485 )
( 0.201615132971587 0.0563758845374615 -0.0168369339960432 0.1809289576442112 0.0278240400447441 0.1016991692653865 )
( 0.1995769452532605 0.0568494901783451 -0.012857464827646 0.1803647328184582 0.0223093864412411 0.0969813239630902 )
( 0.1966498842311224 0.0579221297580807 -0.0089005429067969 0.180397222696956 0.0178702596419189 0.0931689714509858 )
( 0.192313505945187 0.0592764343642487 -0.0054525056967588 0.1799201616795488 0.0143361417501893 0.0901663339036583 )
( 0.1864126084962647 0.0606656549310344 -0.0015221855686894 0.1804876111684442 0.0115030183345836 0.088718453143061 )
( 0.1814087843283864 0.0627657380816124 0.0030244371825786 0.1801667924334207 0.0103965755038231 0.0887543913948664 )
( 0.1761518581520431 0.0646075892665629 0.0082178113154505 0.1775684432379828 0.0111538072848064 0.0910863021648282 )
( 0.1704285073573142 0.0664812513921831 0.0144846466446913 0.1739156887164246 0.0134277524413253 0.0961988350902651 )
( 0.1658493486034266 0.06856180830005 0.0217481682522917 0.1683153576352762 0.0168769358724821 0.1039479432237882 )
( 0.1623778238730785 0.0703992270049441 0.0294016125409168 0.1607598473783424 0.0210649353428392 0.1146769392209731 )
( 0.1599554287680154 0.0723208563578949 0.0362119550817266 0.1528154613549631 0.0248764027510791 0.1271184880609117 )
( 0.1586609069192509 0.0742768094960948 0.0419553742160301 0.1454152654339338 0.0277526502418532 0.1397194284513427 )
( 0.1582554736480546 0.076403554381216 0.046476177307623 0.1387624850776041 0.0296046231120125 0.1513437082913919 )
( 0.1583034195034695 0.0784279167432129 0.049768381018513 0.1330626612549464 0.0301490441664886 0.1617178872246979 )
( 0.1591427714474813 0.0806403862061092 0.0520475914411743 0.1276675310240405 0.0297907675098241 0.1715973123623599 )
( 0.1611123584312031 0.0834798060514917 0.0532066607099982 0.1221382353224161 0.0287473879328031 0.1801656171100676 )
( 0.1903397789332849 0.0459187528967053 -0.0189032904243091 0.1922674601184975 0.0295884031055757 0.1189018838247216 )
( 0.1898635603252213 0.0437697346655397 -0.0134911568328571 0.1928994633740796 0.024142624323365 0.1134358056889234 )
( 0.1866374585188487 0.0419525330252014 -0.0076829591244559 0.1925229882940813 0.0181727679279603 0.107176840275433 )
( 0.1791435145084251 0.0397753874459818 -0.0030162423508693 0.1938962974630445 0.0109889162740549 0.1042040228401983 )
( 0.1690480469457868 0.037017556639473 0.0003010446623941 0.1966896179720107 0.0047695949544434 0.1035374197076284 )
( 0.1593991356000873 0.0359193531461641 0.0035661963905413 0.2004393237355782 0.0009803668515733 0.1035133630021346 )
( 0.150433847733569 0.0360635515432513 0.007084498273687 0.203806139259493 -0.0010579478878497 0.104432382324807 )
( 0.1423934643189076 0.0374387819515024 0.0115096161289838 0.2070314027420838 -0.0014295598379325 0.1075895883414753 )
( 0.1364444999908865 0.0407045843643134 0.0166186078128052 0.2082003935737218 0.0006113116321884 0.1122974067886794 )
( 0.132635619877538 0.0448012725149648 0.0227157369960795 0.2065481180685098 0.0042558605272033 0.1186805284526001 )
( 0.1300697496659838 0.0492489357381067 0.0295303441085788 0.2030034515062796 0.008893302320122 0.1277303648355435 )
( 0.1299054464233119 0.0545498679212321 0.0361729053569742 0.1967326827855867 0.0137430232656871 0.1387224921150812 )
( 0.1312958120569793 0.0599961367132182 0.0416098960430483 0.1880644070775522 0.0174006861056069 0.1503941586035657 )
( 0.1340131760769094 0.0657470262945783 0.0456073662749998 0.1806441719937417 0.0193842996698771 0.1616099006817215 )
( 0.1371100364421347 0.0709019265642197 0.0481918149088591 0.1749078232632539 0.0197099162602223 0.1706083584203886 )
( 0.1397797900077189 0.0756180790542833 0.0491653338845659 0.1701628686319609 0.0185434255124546 0.17683536886974 )
( 0.1427599147757281 0.080117822109519 0.0490435020121064 0.1665080995183454 0.0164233011300332 0.1811875078836478 )
( 0.1461529109144937 0.0847825246138899 0.0478960069764018 0.1633386658492165 0.0135325504132651 0.1841624430899924 )
( 0.1497591678444083 0.0901025002703123 0.0456807246071483 0.1598843001108329 0.0097641606869563 0.1858051466801868 )
( 0.1840684694897142 0.0359136664652157 -0.0088437019399237 0.1954859578314384 0.0176583368444204 0.1184963329510085 )
( 0.17681741097547 0.0291766140773828 -0.0035465737691512 0.1959523446376257 0.0115881661415194 0.1175712491417054 )
( 0.1648940928890237 0.0228015374738647 0.0011807984784917 0.1990668459093058 0.0042279162421378 0.1162535811058715 )
( 0.1508848966883352 0.017596575152659 0.0049160844967688 0.2054667390130909 -0.0034896816464278 0.1173932080974656 )
( 0.1384980931016449 0.0142283073936809 0.0082772667407131 0.2126269832127237 -0.0087886531660447 0.1201164775619062 )
( 0.1294290400041295 0.0137256245874368 0.0122196119246934 0.2204898144460295 -0.0112744111049376 0.123042585431388 )
( 0.1229863906793 0.0153749806036584 0.0174913089656826 0.2278653742960956 -0.0111043935121151 0.1269849860613544 )
( 0.1195345594514345 0.019504920908331 0.0238663431318328 0.2337363390116156 -0.0083604841169926 0.132705124501167 )
( 0.1186939184566055 0.0256408987830133 0.0305298627584339 0.2363275739099209 -0.0040427343331043 0.1393275347655494 )
( 0.1202385688172573 0.0326670242564361 0.0373322217746289 0.2357742115215635 0.0007653334874486 0.1465379298097776 )
( 0.1235943401216216 0.0406397584435155 0.0436084789354549 0.2321354110593088 0.0053043196050748 0.1552741622045332 )
( 0.1284643987540758 0.0493493920744683 0.0484544894382779 0.2262096011821943 0.0083206682880243 0.1643947993193271 )
( 0.1337049548389998 0.058136678256078 0.0509833976897779 0.2196568042893883 0.0093073690070382 0.1723539633473799 )
( 0.139016593158171 0.0667900895612381 0.0516396269580362 0.2144124250370847 0.008464395022836 0.1786382811033497 )
( 0.1437731954184856 0.0739494932512325 0.0511729003363876 0.2115068262446963 0.0061465427968335 0.1823507831870248 )
( 0.1478051600364013 0.0806074793216385 0.0494836137683541 0.2097872618129679 0.0028594109305909 0.1836321085824304 )
( 0.1516072266387201 0.0871618596250213 0.0469250018792897 0.2084363526387938 -0.0009370599024668 0.1833803683134825 )
( 0.1551777715408629 0.0936779658605788 0.0439221067647602 0.2073104362058434 -0.005050904024742 0.1820306340235697 )
( 0.1587974812321698 0.1008981925382517 0.0400134598954467 0.2057964355038227 -0.0097825331883034 0.1794056094957692 )
( 0.1719929288652651 0.0204601256320151 -0.0020476747646623 0.1954831548299499 0.0078230750479886 0.1264052836621052 )
( 0.1589516402456653 0.0101323444017297 0.0021218964549282 0.1969339313312475 0.0009019441590104 0.1295671658375382 )
( 0.1421189508359555 0.001529978624797 0.0068077776222699 0.2046396378924749 -0.0073312078181257 0.1319232948899688 )
( 0.1283949618843439 -0.0030381996086824 0.011651742727133 0.2170140983421701 -0.0144066844068602 0.1355394469616322 )
( 0.1198095708225196 -0.0037467620854765 0.017091706584183 0.2288757290492466 -0.0176173659608212 0.1398008531076733 )
( 0.1164456361196609 -0.0014677255190043 0.0238257303944605 0.240561090465574 -0.0176955356558247 0.1441381091821402 )
( 0.1160318103815741 0.0036221730543745 0.0318766699674795 0.2510549400484665 -0.0153917415128178 0.1490490980534127 )
( 0.1182378263835261 0.0112620551899155 0.0401609979655408 0.2591661864185171 -0.0109645230868846 0.1553956076105579 )
( 0.1226152303359818 0.0202595779875404 0.0477976232926739 0.2632512355848435 -0.0061161138404276 0.1624039747277637 )
( 0.1281618865522319 0.0307307357500741 0.0539787673734851 0.2636674184336651 -0.0020762846443986 0.169523793927469 )
( 0.1340305409875188 0.0416962053079622 0.057671656575333 0.2611049362517842 0.0002471419282128 0.1763274613704755 )
( 0.1396111196132685 0.0525597444777565 0.0587006847435505 0.2572598344882997 0.0001082353800478 0.1808029287959754 )
( 0.1449742446958924 0.0639435101391895 0.0575241836430118 0.2539105180603353 -0.0016888296243165 0.1839577360380131 )
( 0.149578673303809 0.0749530081339058 0.0548902901979789 0.25152475275235 -0.004542579762969 0.1857157128657429 )
( 0.1536065248496932 0.0842371412326772 0.0519787180592054 0.2512849159445271 -0.0083128038317593 0.1853564100581658 )
( 0.1569899332832741 0.0924918453331338 0.0486887381512774 0.2519806109922811 -0.0121926212317162 0.1834618473004791 )
( 0.1602183801277985 0.1006587582219373 0.0449855139017968 0.2529131683704193 -0.0161297401824386 0.1810186155222141 )
( 0.1633325965518405 0.109012423399097 0.041261486624836 0.25382533259115 -0.0198779546863028 0.1776766982786735 )
( 0.1669040397702086 0.1180013622573753 0.0370755503283111 0.253653696340872 -0.0237016974630637 0.173070103772659 )
( 0.1554550027679636 0.0019392073365611 0.0021689067694237 0.1923072859981545 -0.0003923453971497 0.1401517935001471 )
( 0.1401106032755057 -0.0091954775343822 0.0068056173013143 0.1964651833408079 -0.0075226262436647 0.1459497967841662 )
( 0.1254002456129264 -0.0161098741517145 0.0134034415682755 0.2109706777927629 -0.015799877127134 0.1493816218092344 )
( 0.117236093141658 -0.0176219820770636 0.0210731457842557 0.229415043760965 -0.0215495550188282 0.1538527699218083 )
( 0.1150750893445726 -0.0147817691671229 0.0296107720132078 0.2454447867789429 -0.0225400094259261 0.1586847237193978 )
( 0.1171862803438645 -0.0083072385215588 0.0394252992162364 0.2605780125426324 -0.0204771173133423 0.1637981477312579 )
( 0.121255014287313 0.0007254053307924 0.0492615282716764 0.2728354500864237 -0.0165054711447668 0.1693419715458574 )
( 0.1266633488508881 0.0113834967805626 0.0576258528135395 0.2821188529023847 -0.0125590187107655 0.1752698270010978 )
( 0.1327679780109692 0.0229074035156217 0.0638331460238134 0.2875722205314959 -0.0092091099223047 0.1814937966894064 )
( 0.1383870207814301 0.0356099631356445 0.0668954522349228 0.2888996332836244 -0.0069886401049 0.1866742038230458 )
( 0.1432617236320715 0.0491844263410939 0.0663386695546385 0.2890763220395184 -0.0071234968397741 0.1899061864495815 )
( 0.1474604856708536 0.0627471290582362 0.0633230229957889 0.288702988085103 -0.0092753131878792 0.1905534066505781 )
( 0.1514888216499529 0.0757482334670247 0.0592366571176949 0.2885635728527853 -0.0126414473679932 0.1900706377631016 )
( 0.15493959999618 0.0882045492683466 0.0547653249079078 0.2894558056609956 -0.0162611939558225 0.1887019958608336 )
( 0.1586729823879093 0.0997548375275007 0.0506244019818578 0.2916291996571553 -0.0197880921670236 0.1858186959942361 )
( 0.1620492746564195 0.1102139164291983 0.0468797475207785 0.2948829883534188 -0.023057824590268 0.1821751182717271 )
( 0.165361258484041 0.1204003773967092 0.043262497062858 0.2980395974281463 -0.0261596607730605 0.178074089929606 )
( 0.1695700982204643 0.1312862609395718 0.0395712636788016 0.3005017150573241 -0.0289611876358383 0.1731344114349434 )
( 0.1748040773985323 0.1427370516795518 0.0358242830899574 0.301503365776254 -0.0316485623660317 0.1674914384959763 )
( 0.1405970528556543 -0.0153446942624513 0.0062535591199798 0.1886251024233108 -0.0067953411563667 0.1562693559409457 )
( 0.1271688095454248 -0.0252095212339556 0.0131627390513986 0.1960716177586737 -0.0133344509369198 0.1623493946641506 )
( 0.1178781001340995 -0.0281094222358126 0.0230576297086193 0.2173793533722745 -0.0211653971987462 0.1654982099231287 )
( 0.1156127195108364 -0.0248753795388428 0.0341982078462831 0.2416063166251599 -0.0252584644748448 0.17026859065258 )
( 0.1185516446562096 -0.0179788794763495 0.0455054730291449 0.2612896681517514 -0.0245526878076626 0.1754341866243244 )
( 0.124090142269019 -0.0079470535688842 0.0564250845408235 0.2782965754270584 -0.0214226471687474 0.1808500219498405 )
( 0.1299543972915098 0.0044372634087419 0.0654107146734181 0.2916047969406041 -0.0174304268897372 0.1860422550571894 )
( 0.1358823466886071 0.0171700758780615 0.0714978732467394 0.302415508114728 -0.0149098745368324 0.1911713312261545 )
( 0.1410486924243311 0.0303286395835435 0.07407500827019 0.3100782153285586 -0.0140858565481443 0.1960340989409833 )
( 0.1441372366042003 0.0450067434044591 0.0728756851740004 0.313426517688691 -0.0136801338417877 0.1985802770673448 )
( 0.1471904668390859 0.0608174441258634 0.0688665135967809 0.3167546539848438 -0.015222877511687 0.1991822240881468 )
( 0.1506045708120601 0.0769449685484683 0.0633708050219633 0.3201098266986 -0.018063385841688 0.1978026647348443 )
( 0.1537163453947652 0.0920631860253919 0.0576524086354479 0.3232975377621684 -0.0211278928739015 0.1939777543278739 )
( 0.1570060357143652 0.1064439847162008 0.0525646142621758 0.3281549133430424 -0.024171268897875 0.1890578447229812 )
( 0.1607678852051003 0.1198481575336333 0.0483389134177557 0.3333516433632155 -0.0267799558419926 0.1837228416497166 )
( 0.1651080205930071 0.1330280856938625 0.0447423576586352 0.3389753722124466 -0.029226056396405 0.1784434497916397 )
( 0.1704126389956311 0.1464903647863813 0.0413782277662347 0.3440011159164818 -0.0313280521630675 0.1726792508789504 )
( 0.1774870882303787 0.1607387402063269 0.0379786463929065 0.3477111406341763 -0.0334002996726954 0.1665308256423159 )
( 0.1861660885417371 0.1753284951993947 0.0347512580757189 0.3494807954415556 -0.0356333165346659 0.1606860323538451 )
( 0.1299968066125162 -0.0294769748450878 0.0126837555776791 0.1843916203435436 -0.0111768911108651 0.1710081816754727 )
( 0.1206190877640085 -0.0361297070047704 0.02305223295449 0.1956587118632556 -0.017213386323861 0.1764515508189796 )
( 0.116878842052184 -0.0340530913906543 0.0363785412114445 0.2235367111893606 -0.0239416289207328 0.1797095664527153 )
( 0.11933792523748 -0.0257635712080808 0.0496343026119404 0.2520869245122241 -0.0264196134847388 0.1845130516503928 )
( 0.1251940002094586 -0.0149262762400449 0.061887793163967 0.2747844073684658 -0.0251572174681295 0.1901497535636145 )
( 0.1317690981938239 -0.0026877307941505 0.0714042049643229 0.2936570044372069 -0.0224549792311689 0.1951909877286898 )
( 0.1370649803321171 0.0111553748653172 0.0773195826456065 0.3086620326050317 -0.019885838191545 0.1994018740385829 )
( 0.1410579523228682 0.0256039268147752 0.0794517905485802 0.3206523243045215 -0.0187141218817437 0.2038679765054948 )
( 0.1438975374012737 0.0402528119864241 0.0777046702459497 0.330406669155759 -0.0194636096041269 0.2068647370004826 )
( 0.1454365412544466 0.0568302306803982 0.0732892262884404 0.3384120514772761 -0.0204037934748692 0.2075697036952508 )
( 0.147086890869166 0.0745110474971091 0.0673197280668679 0.3451873799605358 -0.0221063811590536 0.2055027478861118 )
( 0.1498521385928233 0.0926728587476086 0.0608489768969188 0.3523038791522679 -0.0245306302991641 0.2014476887269954 )
( 0.152954163247863 0.1111609061885468 0.0546251369147302 0.3596303449940384 -0.0263697251954432 0.1944599808087357 )
( 0.157565266521611 0.1287828324460707 0.049389875526958 0.3680849549331664 -0.028228421220893 0.1865366125776496 )
( 0.1630213903870712 0.1448670329070154 0.0453815678929243 0.3765793728771314 -0.0303310930521968 0.1793236784463922 )
( 0.1697231992962876 0.161497954521002 0.0420677541205467 0.3845413222949869 -0.0321859050183539 0.1725588562628716 )
( 0.1784203764154477 0.1787075257755648 0.0388463035351539 0.3914738337279316 -0.0335717911076814 0.1657252031633537 )
( 0.1895016784480248 0.1966518941742203 0.0356601766337987 0.3966162943568896 -0.0354329845540527 0.159406033717515 )
( 0.2033309222539947 0.2151991937256464 0.0324937635911255 0.3988758865296563 -0.0377784774060577 0.1544396342320392 )
( 0.1240821092151347 -0.0388782101670957 0.0226821007269723 0.1802303691945398 -0.0133977451530251 0.1829055712323498 )
( 0.11909584227854 -0.0406453508926787 0.0363187201853763 0.1967900701715472 -0.0190919611904299 0.1875148578580333 )
( 0.1192556299493036 -0.0334232656165692 0.0513286704847452 0.2304480412574533 -0.0248177431809577 0.1911559121969394 )
( 0.1248524217147086 -0.0219711822949117 0.0645936386826918 0.2612297515091536 -0.0266377040792679 0.1967909225308514 )
( 0.1316311892033109 -0.0088058694238093 0.0750603376635572 0.285847172091238 -0.0256832250412826 0.2021842370568934 )
( 0.1373715686137844 0.0051823470639832 0.0818063080401269 0.3065170105813337 -0.0243426239627317 0.2072758091323253 )
( 0.1409281151498495 0.0197957218767636 0.0839960871620925 0.3238420759329741 -0.0235819381056359 0.2117226675976132 )
( 0.1421724959819273 0.0354476141061229 0.0818611719271362 0.3389566865603984 -0.023731045237807 0.2152685453027197 )
( 0.1426106331573406 0.0516517886197822 0.0770164317211827 0.3515080317850954 -0.0245181445129895 0.2166690801789773 )
( 0.142570818683736 0.0695197010538747 0.0705605111811554 0.3635415177478781 -0.0256199328062161 0.2144644294193977 )
( 0.1435815677069039 0.0893681954862555 0.0634555877068191 0.3748832818722858 -0.026784552772942 0.2085434756076325 )
( 0.1468483097485577 0.1106391095356636 0.0566408671305245 0.3859689614885552 -0.0279282569671644 0.2006080563908992 )
( 0.1517389074650748 0.1323237264515914 0.0506937510863857 0.3975254413318267 -0.0288227448003805 0.191269555062895 )
( 0.1587526599673725 0.1531323556477812 0.0458556309315772 0.4092038077952694 -0.0300805587026078 0.1816817895481521 )
( 0.1673628437859804 0.1735118118234833 0.0421232329758509 0.4208000778279842 -0.031468213179412 0.1733974360811205 )
( 0.1778990441857876 0.1943135359085373 0.0388857565904897 0.431943544642035 -0.0328233890464388 0.1659950036759652 )
( 0.1909015131150173 0.2157001914767192 0.0357613126214917 0.4416763278596103 -0.0344051416183719 0.1592401427360989 )
( 0.2068039876377464 0.2377471476921054 0.0325963487341833 0.4483703518099154 -0.036690416015932 0.1539089666204841 )
( 0.2265745954825653 0.2604734216088222 0.0291631086968091 0.450736596089077 -0.0396086412506165 0.1508540353573131 )
( 0.1219164553898105 -0.0430983141007546 0.0345769495767466 0.1765671617809476 -0.0147880563370453 0.1914286683833495 )
( 0.1205454077617317 -0.0401601787691028 0.0500589535847485 0.197887522237542 -0.0197523867722204 0.1942639106349629 )
( 0.1235235042289491 -0.0286789026016152 0.0653463089891897 0.2362820765332997 -0.0249244598853911 0.1999179701636722 )
( 0.1295380897277195 -0.0150029001584262 0.0765057160294891 0.2689442445670338 -0.0271982109417061 0.2071273101992402 )
( 0.1351285976880547 -0.0002266366473913 0.0836478094582167 0.2949965621633211 -0.0271396615793216 0.2121981272570068 )
( 0.1390170852899603 0.0145856307055555 0.0869552934764826 0.3177461830031795 -0.0269038707162561 0.2182126256163842 )
( 0.1406163924307422 0.0291867444547207 0.0857331074353969 0.3381032666989818 -0.0274587776334218 0.2230378420943312 )
( 0.1401405403770494 0.0450668788545852 0.0807153206363302 0.3571112024386619 -0.028186492032651 0.2251547239126923 )
( 0.1386819067331154 0.0625497213524939 0.0737224377701893 0.3736190165484347 -0.0289723204180453 0.2242452028073386 )
( 0.1373265655101519 0.0821752654452803 0.0660504828307938 0.3893368647664662 -0.0291865538610156 0.2185506911273486 )
( 0.138940828942096 0.1047283157871871 0.0586908463140633 0.4055950899017618 -0.0292337412189358 0.2089293769982217 )
( 0.1442163718476038 0.130164971395224 0.0519894009503492 0.4216898897105504 -0.0292605021903723 0.197521017088149 )
( 0.1519736334983732 0.1551338563577599 0.0467358593484659 0.4370590596245863 -0.0294171174782627 0.18650311093097 )
( 0.162115459659073 0.1795486892561574 0.0423092911242682 0.4521632742410955 -0.0304421194210214 0.1761013369429201 )
( 0.1746420981618468 0.2047529816448642 0.0386895457010901 0.467490795009264 -0.0313208002466448 0.166989110054091 )
( 0.1894653876791352 0.230086658982377 0.0354682236993333 0.4824692781755799 -0.0329382547571174 0.159758917659207 )
( 0.2073610803930784 0.2563005306120073 0.0322570883617526 0.4953800628929606 -0.0352232403709081 0.1543015890986365 )
( 0.2290445603244056 0.2829605829346575 0.0288303387786564 0.5033815451791913 -0.0378849005908458 0.1506716945740032 )
( 0.2561872899122731 0.3107403571741152 0.0247628672231958 0.5058684949577342 -0.0411781986957602 0.1497503022284864 )
( 0.1216413455721222 -0.0431646084001194 0.0479080483013257 0.1731258058053481 -0.0158875780295437 0.1974468636646094 )
( 0.1234215804669311 -0.0364305469085934 0.0637912129181499 0.1984088406279768 -0.0202269517443153 0.1996683745476117 )
( 0.1283452226630337 -0.0217234200404571 0.0770651817905278 0.2410550020530309 -0.0254776231400934 0.2073461132545745 )
( 0.1332296431367772 -0.0066123444561468 0.0851865291274013 0.275344113798037 -0.0283264938175516 0.2157493359743663 )
( 0.1369613629177903 0.0085602641735719 0.088589194426313 0.303051995152322 -0.0291377543985227 0.2216583945493379 )
( 0.1377335055085564 0.0235200191725989 0.0877880498108655 0.3284483498674369 -0.0298207220420616 0.2276083705421159 )
( 0.1371000841298891 0.0381261189477326 0.0838256572172557 0.351865908972197 -0.0306670836124032 0.2319134447280094 )
( 0.1350560552466356 0.0545631680829272 0.0769773941840039 0.3740754135151363 -0.0310897303977329 0.2327973210246074 )
( 0.1321532090330399 0.0731667731027558 0.068838209171229 0.3951893038464116 -0.0313298336759052 0.2284218698363812 )
( 0.1314954340695211 0.095357172283434 0.0608165865503558 0.4160469213513812 -0.0303181386755699 0.2192822470274741 )
( 0.1347606178219965 0.1211884162194885 0.05343191208066 0.4374591593061365 -0.0294938704987856 0.2067427050669331 )
( 0.142472292175318 0.1500956695596475 0.0474680562461411 0.4590190233158611 -0.0289333521394829 0.193544509650627 )
( 0.1537419427032453 0.1795794734170402 0.042759499290198 0.4791364506020349 -0.0286639430635772 0.181041835870945 )
( 0.1680133676406418 0.2088017128191259 0.0386478097480547 0.4985255714966022 -0.0297939406751813 0.1699315623290976 )
( 0.1847553810556116 0.2386025458195939 0.0350480092787042 0.5184709905019017 -0.0311317481657496 0.1610090869448637 )
( 0.2037526783019563 0.2683356282308224 0.0317139374023077 0.5373759097781541 -0.0332657632150072 0.1547175706312438 )
( 0.2266213113516518 0.2990613295533573 0.0282351920062687 0.5528515542904738 -0.0360601570564644 0.1509702534490531 )
( 0.2558368481697435 0.3315659219796579 0.0243009034562691 0.5624248209252691 -0.03929202389034 0.1494353826063637 )
( 0.292599522582699 0.3658674946921144 0.0191799866238949 0.565452303140452 -0.043391315054343 0.1509731741074306 )
( 0.1235674144896165 -0.0400332578059965 0.0616718303256182 0.1688823324303958 -0.0163521067467401 0.2016591839802299 )
( 0.1263472966408988 -0.0295756474351452 0.0756155924935999 0.1984524726143361 -0.0207923493143648 0.2059232360308595 )
( 0.1314429970061875 -0.0134716997064077 0.0851326813900841 0.2448555846338746 -0.0267476954610148 0.2147226278247591 )
( 0.1355450486583884 0.0017296591218359 0.0901577699014694 0.2804709420086441 -0.0297160457169582 0.2234951902421287 )
( 0.136993732649718 0.0165146660268867 0.0901653558865801 0.3109990884302549 -0.0313586881629732 0.2302349251048868 )
( 0.1348742741757162 0.0314620688253485 0.0859744424179378 0.3390346902013621 -0.0324921652222163 0.2357502908982041 )
( 0.1315068113319107 0.046675637528833 0.07975074277614 0.365028782850634 -0.0328333769129374 0.2392338181384603 )
( 0.1277864196042938 0.063579631747425 0.071662621782958 0.391480027718557 -0.0328861777748919 0.2381958395897408 )
( 0.1249957542962122 0.0836563873772513 0.0632924504779203 0.418286833255644 -0.0321165320806357 0.2306097116392256 )
( 0.1258250499354883 0.1086285074792786 0.0557291129015927 0.4440676376452229 -0.0300607100768241 0.2182204809085382 )
( 0.1315236497334491 0.1385853245600701 0.0486125092405473 0.4710622069012827 -0.0284974324161065 0.203105631567036 )
( 0.1422706710878548 0.1712279471236884 0.0433231959069141 0.4982620823914607 -0.0276349720168014 0.1884371328834478 )
( 0.1569250963211578 0.2050071375324792 0.0388563933086142 0.524115852944559 -0.027736375218214 0.1751181400314083 )
( 0.1755086324358289 0.2396428170447614 0.0348730514732495 0.5495436216545939 -0.0291667895648998 0.16413262953505 )
( 0.1960711755756227 0.2735760365678069 0.0314890920699851 0.5741727376895692 -0.0309199374134762 0.1564051316399206 )
( 0.2197740897558998 0.3078147464669537 0.0279143345998412 0.5961849505613604 -0.033382297566401 0.1513826911235682 )
( 0.2495260582456798 0.3447664139876326 0.0237937816998314 0.6151573266898462 -0.0368112542853515 0.1490124433870113 )