/*--------------------------------*- C++ -*----------------------------------*\
| =========                 |                                                 |
| \\      /  F ield         | OpenFOAM: The Open Source CFD Toolbox           |
|  \\    /   O peration     | Version:  2112                                  |
|   \\  /    A nd           | Website:  www.openfoam.com                      |
|    \\/     M anipulation  |                                                 |
\*---------------------------------------------------------------------------*/
FoamFile
{
    version     2.0;
    format      ascii;
    arch        "LSB;label=32;scalar=64";
    class       volScalarField;
    location    "0.0065";
    object      k_LES;
}
// * * * * * * * * * * * * * * * * * * * * * * * * * * * * * * * * * * * * * // 
 
dimensions      [0 2 -2 0 0 0 0];
 
internalField   nonuniform List<scalar> 
13597
(
0.2322650610023921
0.2323787588340546
0.2313603595309121
0.2311428310755662
0.2314105212451142
0.2309579843323995
0.229360630105622
0.2274104942283596
0.2249195108735492
0.2218463105499374
0.2196264065082252
0.2177679568015791
0.2158920932804425
0.2149003589516743
0.2148568844365447
0.2158107853090573
0.2175624638982149
0.2194654052227136
0.2218132974572145
0.2476827726455146
0.2487436815368409
0.2473258852336967
0.2482632970434884
0.2486994539855187
0.2477280270762206
0.2459034908377901
0.2440092318403288
0.2421250348505578
0.2392766032850815
0.2369864370156174
0.2348310014716589
0.2326999355165765
0.2316768580504985
0.232150814819553
0.2326001932542511
0.2328677650230115
0.2341046865572824
0.2359063528292136
0.2576280643671532
0.2580433387697421
0.2552716587747839
0.2545715171513671
0.2545353684570058
0.253691339185091
0.2515733362009941
0.2494414009175415
0.2477066891015807
0.2459983498618798
0.2441977360048365
0.2433737413075196
0.2433946626956386
0.243680059118054
0.2448420818527081
0.245763154451322
0.2464569491677255
0.2474986323514301
0.2481550326730989
0.2611478819155724
0.2602683410709894
0.2568491276188669
0.2565585641668026
0.2576447719204221
0.2573943661300122
0.2562081878407105
0.2553844642600608
0.2544769278029617
0.2535788421827603
0.2520212785020555
0.251757958668226
0.2521022632240183
0.2528166955632843
0.2537690512366856
0.2546159108921973
0.2556640580071403
0.2569640681146936
0.2582089022747348
0.2611718927698229
0.2590791479491548
0.2575972584973725
0.2595877900149865
0.2610208219902562
0.2614035716483345
0.2605226327634111
0.2592527148147359
0.2581257767742523
0.2567414014707341
0.2561504603913322
0.2570818313788708
0.2585126662908703
0.2608962247651074
0.2636088033995281
0.2662942404287398
0.2689376454481532
0.2719201918306039
0.2751545125679437
0.2600798705826816
0.2577967341110059
0.258317723000673
0.261699590037654
0.2626210504580594
0.2628964548306358
0.2613052065064934
0.2595932654635115
0.2592745952176382
0.2591232774616734
0.2604524021004419
0.2630728943387053
0.2669620336601171
0.2715562124352227
0.2764209565258445
0.2812309385500492
0.2857642964213633
0.2903075172592064
0.295251249485959
0.2584722365359959
0.2572368029906462
0.2589533281512326
0.2617767092937296
0.2618337361421095
0.2612469006117286
0.259670747664889
0.2587407005519087
0.2602526360911125
0.2628620067763061
0.2665632159710265
0.2719490302343306
0.2782873254576972
0.2847603410690187
0.2915256308599457
0.2979213414620088
0.3039497302807178
0.3101458092476174
0.3167336412507092
0.2576801099840524
0.2574281142256719
0.2592025929176654
0.2605687595241946
0.2593099190691259
0.2577985169145239
0.257663468864339
0.2591379545787838
0.2626732631697912
0.2681709890607482
0.274913453737063
0.2831781462503072
0.2917762450614343
0.300070276142492
0.3080486935174706
0.3157264227966296
0.323316967068523
0.331173557410339
0.3391355824136019
0.2567566380985202
0.2562630018088928
0.2570404931061688
0.2571420464551738
0.2556300516744809
0.2547354984655894
0.2560787355793326
0.2604596940439499
0.2666864599399035
0.2751681560081872
0.2849233078322727
0.2954127858981402
0.3060369764728153
0.316240933997282
0.3256251396898508
0.3347578534391591
0.3437397834270846
0.3529120319493865
0.3623174991264111
0.2565326757812078
0.2544611104110052
0.2527168016721379
0.2520589229098415
0.2518160380965977
0.2528645565196634
0.2559623835265867
0.262959418880244
0.2724470609047233
0.2835806943374835
0.2960308281074652
0.3086229862274831
0.3209413328635075
0.3327020746581919
0.3434682029802478
0.3540126175855873
0.3645778498382553
0.3752060163248341
0.3861173064358936
0.2556450463652897
0.2509538476839618
0.2477750613659686
0.2470718059663508
0.2480072405411821
0.2516839269641686
0.2582956516162008
0.2679653154094439
0.2799667470524987
0.2932661779245069
0.3074198532800053
0.3220923737883468
0.3358347501026186
0.3487480191105014
0.3613576053331168
0.3735885099647262
0.3860109463563914
0.3984615649701402
0.4114651681189579
0.2518293844558039
0.2450502488694558
0.2425550772498748
0.242716193635312
0.2455621405593729
0.2521261396984951
0.2621212064710663
0.274768526209506
0.2885410391030759
0.3033449550235174
0.3191366468838963
0.3354780426569839
0.3506582896594792
0.3652957807749472
0.380056921217506
0.3942538440439519
0.4085179110807482
0.4235239368763295
0.4396549683735129
0.2471839703353393
0.2390125922603034
0.237258853202134
0.2395071758775586
0.2452061892229388
0.2545681128080843
0.2671579290594408
0.2821415754454631
0.2979624015624127
0.3140144965303935
0.3314131084457183
0.3490322034235272
0.3659410951846784
0.3830151156036279
0.3995193733595586
0.4156204034783791
0.4329419884783771
0.4516155115717974
0.4711531443157372
0.2426331626971663
0.2335998466671768
0.2326300519072281
0.237470302797904
0.2463016230773725
0.2584860157557904
0.2730718592989368
0.2890727535267405
0.3065666586572768
0.3244877125337934
0.343043401396354
0.3626619698950906
0.3819133739418741
0.4007826346930226
0.4194897994711525
0.4388987556217031
0.4602924887296071
0.4828804442918037
0.506621471157377
0.2368958265700489
0.2278340513782374
0.2297791673599289
0.2369907262368022
0.2487953206424754
0.2631726952556076
0.2792152079743485
0.2967633605744413
0.3152886970875261
0.3346525844501198
0.3550102974654474
0.3768366462607154
0.3987074928553595
0.4194696336395296
0.4410912749023526
0.4647974693027901
0.4904079259016998
0.5178135334776325
0.5506783772730024
0.2307910212983517
0.222691451396696
0.2278532430556959
0.2376686858407713
0.2517965187312286
0.2679476598928539
0.2855984963843587
0.3046288688502778
0.3242203291697538
0.3448725857171033
0.3677963669021206
0.3921352927619717
0.4158518782369393
0.4391554847528335
0.4643359423293176
0.4920990497984724
0.522936355043886
0.5599421195210562
0.6099089432988266
0.2247887427473487
0.2189126613485846
0.2273270844209663
0.2394041422141493
0.2552360078852322
0.2732317959017281
0.2922100263395458
0.3118880044874199
0.3325309060872614
0.3549915061153921
0.3792573999481652
0.406086816656104
0.4326805117955906
0.4593218546946842
0.4887985494876998
0.521612394570851
0.5607260304273983
0.6137510966210604
0.6818134728346327
0.219463269759809
0.216366881524737
0.2278540693223944
0.2419757446425639
0.2590689659390264
0.2784169642646172
0.2979514769035756
0.3184634163049288
0.3409857018069007
0.3648335894631056
0.3907542982965502
0.4200680196138012
0.4500164604869969
0.4807978992862851
0.5148694976030611
0.5540868445623272
0.6071653599829946
0.679393474179088
0.7480585670362869
0.215967783764422
0.2154047504271421
0.2292579740463567
0.245093028202486
0.2632864308013982
0.283772552195665
0.3033412242316499
0.3245627248812512
0.3488786840793116
0.3744190533438331
0.4033776326112084
0.4349090784311206
0.4680532138171069
0.5036946012478253
0.5428588679469065
0.5923958221544404
0.6639551702273617
0.7536808555542824
0.8010001726866546
0.2136790600477803
0.2154123561238384
0.2316321437922425
0.2487145294023626
0.2677194611133315
0.2889430964033664
0.3094549070234882
0.3309956641435101
0.3558691412425885
0.3836350268199869
0.4154979151103316
0.4500854470658333
0.4868404465299852
0.52661180331822
0.5748794922747085
0.6383799436761397
0.7293510678009297
0.828069766955978
0.8375362981411183
0.2120559465898652
0.215800633584004
0.2335211298706104
0.2516848625950068
0.2715036711598661
0.2931667325401595
0.314808991798326
0.3367968686082944
0.3627868503648443
0.3927470602801167
0.4274470746899961
0.4662834035913225
0.5062154472244945
0.5495863528695429
0.6086749916500654
0.6914005719618334
0.8012610439839776
0.8950594708092703
0.8335084602152195
0.2114230630278848
0.2169343446615447
0.2357501279162291
0.2544162720612686
0.275208816681513
0.2979106304157779
0.3197846558358547
0.3419236402485839
0.369995444345177
0.4024029991493851
0.4390756130799009
0.4802715324780336
0.5238949160661555
0.5751177544986245
0.6447830658165485
0.7486406857659955
0.8731952140084425
0.948625449868808
0.7726368331122883
0.2114206484480894
0.2187407933458078
0.2383509197320921
0.2571195513417845
0.2784607761188956
0.3016130080345467
0.3243964841148281
0.3477150370335498
0.3774148402939731
0.4125926338395033
0.4513441018358054
0.4940435406045236
0.5413882091905609
0.6013377988370752
0.6876252021298254
0.8112964793697356
0.9418258923084036
0.9609658465546206
0.7039539505666783
0.2119417389858933
0.2205783256259249
0.2411973136096341
0.2600350313664555
0.2812892705667043
0.3042723214870066
0.3278340600048765
0.3529246411660838
0.3838186969089195
0.4207256319922752
0.4624314133313356
0.5094866645214835
0.5618146084649288
0.6301309195900099
0.7339443770755099
0.8753592259319254
1.0040535847664094
0.9428049326034476
0.6403065470158282
0.2128914503541581
0.2220487990403677
0.2434464399028736
0.2628776505377943
0.2841032999353406
0.3073576984143891
0.3310696652290166
0.3570882176447353
0.3890948010877258
0.4275627722032616
0.4727562423524453
0.524214423865262
0.5823467667329036
0.6648031153150273
0.7831001226210647
0.9348541838973806
1.047946030343937
0.9190396169749068
0.57055300077229
0.2136864137241064
0.22332876831728
0.2451055559677374
0.2651672297170233
0.28693061851255
0.3102436968581258
0.3343235463310505
0.3611442748792633
0.3944228164881783
0.4353625020183697
0.4831485134848165
0.5377885750075606
0.6027261738046533
0.6982069353780437
0.831269733401561
0.9915307786416578
1.05813521488189
0.8710967861502189
0.5181622852617367
0.2140995221215845
0.2244010969604642
0.246921325662685
0.2671872825260554
0.2892211172744377
0.3128310967169083
0.3375608993373152
0.3655518958995251
0.4002407688916241
0.4430483195513819
0.4929706615247043
0.5506053981894172
0.6227494495243803
0.7277895955536484
0.8768690004449646
1.0415270176301528
1.0603104921317357
0.8187904986112905
0.4745325873866831
0.2145397408226779
0.2253339292910346
0.2484213599982887
0.2694002109241734
0.2914277071625722
0.3153251723845481
0.3406054334765339
0.3694767080250708
0.4055192896440574
0.4508495726917132
0.5035542835302125
0.5628172217456052
0.6415317317957884
0.7581532298183284
0.9259407523501736
1.0890698289389604
1.0753890370657906
0.7840215772017173
0.4381114366848622
0.2146464080731885
0.2259202556090954
0.2492672530304221
0.271306530634113
0.2930947686723122
0.3169671553492398
0.3429150119009568
0.3725265700076373
0.4102222649865786
0.4578208667083076
0.5123187638473677
0.5756658319826942
0.6650917324233266
0.7905406161550035
0.96977027033544
1.1241817877171734
1.074070817763455
0.7526496315641813
0.4151380184958407
0.2145501388926705
0.2261950371916977
0.2502226057695327
0.272881727874425
0.294352825417589
0.3182914267311383
0.3446317106720347
0.3750339170108115
0.4147674582945604
0.4632076210382393
0.5187820405593765
0.5888832731819085
0.6860081169462021
0.8208026241766837
1.007072463358727
1.1198550492489994
1.0322212547008576
0.7219453033123233
0.4017028195121042
0.2147775543360113
0.2267463313108693
0.2513261605415711
0.2742037801969463
0.2958545495712114
0.3197472551951981
0.3462827504961945
0.3779537140422206
0.4191353042248973
0.4685920872512659
0.5260616587626173
0.6012674089731223
0.7012259021936456
0.8476460081650999
1.040614344372352
1.1100081165023774
0.9881945116842472
0.6943337343443664
0.39207565601399
0.2149112303941871
0.2272620981140916
0.2521938847922408
0.2748336371475962
0.2968346765954008
0.3210047707563467
0.3481531715985216
0.3814274382011408
0.4233733406438072
0.4739506294986613
0.5335608677880896
0.612155235815246
0.7171090195346371
0.8797198369307462
1.0720322525531687
1.1202052121480144
0.9751979276904108
0.6707793552038421
0.3801527209332654
0.2145764797714875
0.2277193034778455
0.2531254078316735
0.2754828673508661
0.2975934205142821
0.3218919918472741
0.3496990675889222
0.384230343813013
0.4272379120794244
0.4793075903336273
0.5410202150883091
0.6229170116553934
0.7319679179047349
0.9069216991791876
1.10142540254094
1.1367562061021392
0.9743154544914046
0.6535469240086925
0.3665181133285218
0.2141247426690143
0.2280313722637952
0.2535009657971043
0.2759748608183489
0.2986893401198067
0.322981771122226
0.3505902285355235
0.3861075820239679
0.4306107006653257
0.4848983974885634
0.549377225794445
0.6335624254235871
0.7453507572712352
0.9272571894857672
1.127173278223356
1.1531248719846627
0.9756550002083824
0.6430090233873769
0.358022194083234
0.2139777651060116
0.2283055948624641
0.2537694203751038
0.2763131297175127
0.2997752734180526
0.3241391690582045
0.351465259128124
0.3875130472642928
0.4332572878980676
0.4892871211867283
0.5559963565378917
0.6421100740420371
0.7590892037025329
0.9476468436997424
1.1464479479753835
1.1617900566087465
0.9727469162153072
0.6345448783677826
0.3526813075411403
0.2138129112383553
0.2284667728611826
0.2544263053126486
0.2770841947517973
0.300612399029686
0.3248362750896075
0.352154507354153
0.3886957471233019
0.4355877492386241
0.4923126440709615
0.560720722420334
0.6493592368287431
0.7713011047099211
0.961999290162663
1.161005274557546
1.1703791084855488
0.9678028182715264
0.6248648644673859
0.3463132920271032
0.2135004886215926
0.2285710086353954
0.2548450931325006
0.2777096761416524
0.3015355177160186
0.3258885081617038
0.3532487722075694
0.3899142690155664
0.4378014148859541
0.4953573305784296
0.5652246580350916
0.656614384472695
0.7815964724177583
0.9744011414398808
1.1725330771169846
1.1735022650545144
0.9669827722686152
0.6221374184327878
0.3411001442651254
0.2133236387936908
0.2288659366320363
0.2549314699572342
0.2776458659869175
0.3016121105600528
0.3261324972388175
0.3542963500684629
0.3914378484066787
0.4403030465215981
0.4980045516276511
0.5691519679912355
0.6633736256416854
0.793796142792668
0.9879831416563732
1.1766726832362553
1.1717377204453645
0.9620041527831156
0.6202244343528532
0.3384537821731385
0.2129200265501689
0.2288749332212657
0.2549033732082935
0.2775859318659992
0.3015923950659058
0.3257826129617194
0.3543888525845574
0.3922179850706515
0.442316215657809
0.5000661918278594
0.5721080030006965
0.6688992062237604
0.8072883347007715
1.0044813736798368
1.1775373500521902
1.1661375735451358
0.9518575507426588
0.6137035600336403
0.3375946487466768
0.2122197503457564
0.2285288987763817
0.2548262770191588
0.2778537637825524
0.3017184351246486
0.3256826611162218
0.3545181852888766
0.392207738976411
0.4428140536465956
0.5012210921704704
0.5740729317629102
0.672623286983515
0.8152863377774556
1.0168938679529431
1.1793206392769366
1.1573025282255898
0.9452982868000934
0.6103511832095424
0.3375203338638638
0.2116058854933954
0.2281142069993946
0.2550874836450791
0.2782034567972542
0.3015301795322325
0.3255914679255325
0.3547195318764543
0.3925597076744707
0.4436991064270705
0.5032534482438084
0.5763502609481788
0.6767062378185229
0.821383971919931
1.0229180848485393
1.1775058186387428
1.146768446629534
0.9376062563133112
0.6066134852598423
0.3375613494634222
0.2111972580057006
0.2279009626891627
0.2555242006971643
0.2786115343818736
0.3014689861679534
0.3257529317982007
0.3551653553617333
0.3933107981022037
0.4453512755639252
0.5066897825532483
0.5795465866885868
0.6807478482147334
0.8269536493731884
1.025604956961437
1.1760605303525746
1.1421297580411058
0.929919962910724
0.5997887814998294
0.3360130904674127
0.2109661240763613
0.2276742455269977
0.2554420250620633
0.2784523174650667
0.3013165578995508
0.3260161266411347
0.3557125971246113
0.393683330742381
0.4454799757340556
0.5084352183011775
0.5821708730696189
0.6827491643247003
0.8282028783268692
1.0295193571490329
1.1811387715770651
1.141454571647939
0.9233453949019887
0.5935118383634596
0.3323113246542142
0.2108431322037997
0.2275391344256169
0.2552218765324593
0.277840586942622
0.3010075731413705
0.3262475581883127
0.3558505135548319
0.3939496630952065
0.4461578825795748
0.510337733202372
0.5846296957375356
0.6856605387213518
0.8307763714641846
1.033621082607043
1.178246721082536
1.132020738128773
0.916012022200046
0.5892993313413852
0.3303760258644225
0.1471747408912921
0.1463555505207174
0.1457744020098264
0.1478442278474809
0.1516351781008763
0.1557015739680662
0.1608799748804104
0.1658586244213389
0.1709595203931525
0.1760255737676662
0.180870514364943
0.1857390521101954
0.1894191348342272
0.1920768341323991
0.1939336619808903
0.1945483399488851
0.1945349469512152
0.1937017218064856
0.1918826154916879
0.149406120683555
0.1511748875112051
0.1543357324691215
0.1614394006586769
0.1695261295850652
0.1769433074704122
0.1848223618107251
0.1917319939532825
0.1967866394203142
0.201059224942801
0.2048717216891812
0.2078708244256799
0.2096654365132455
0.2095388503454711
0.2078354447639944
0.2053389615320109
0.2027287305072898
0.199864922632305
0.1962502604409969
0.1595568424221177
0.1650716450970146
0.1733208395272016
0.1848032426415922
0.1951267323237252
0.204178482899301
0.2115866529337075
0.2175168333677253
0.221624771388144
0.224179273088208
0.2254160293506283
0.2249208320820185
0.222788425541521
0.2196696085981574
0.2163118639214654
0.213206260156593
0.2101566345332025
0.2067415334167855
0.2030159514029984
0.173695778663269
0.181238083886734
0.1915533033835005
0.2042954402830219
0.2137825103251655
0.2216574437435577
0.227656468111369
0.2314499585782206
0.23283388587964
0.2319598659914127
0.2302092178738572
0.2269853472322675
0.2227239029259164
0.2191836776809829
0.2161532958122311
0.2139844925993463
0.2126476106363673
0.2118531099784615
0.2117642809688232
0.1850489474782571
0.1924258025921353
0.2027395579710679
0.2142606683038682
0.2219859374282167
0.2276793453409823
0.232278600946015
0.2342169496226176
0.2337192062899136
0.2315213735017701
0.228573201403229
0.22554776208542
0.2227743851142198
0.221663547983217
0.2215751593918501
0.2226324449657693
0.2247443872497235
0.2275988022568355
0.2314680832702794
0.1904777085381508
0.1965554840163895
0.2063480335563057
0.2167620952019261
0.2232782190222223
0.227948176616925
0.2313190328491267
0.2322730584435982
0.2319263033894918
0.2306154164425696
0.228438295079386
0.2274242206175181
0.2282434020590714
0.2303639267038444
0.233511664389987
0.2375997542740967
0.2418639368245001
0.2466384221407669
0.252242019437067
0.1919662932408549
0.1961337304648739
0.2048325118768444
0.2158166650789803
0.2225323401777824
0.2270537051862519
0.2302708608689026
0.2314739723389959
0.2321590856910426
0.2322907773145885
0.2325428747930094
0.2343294624314205
0.2377548415425092
0.2425667310264372
0.2479705841296554
0.253557302994394
0.2590307906788363
0.2649543441698143
0.2714046757443024
0.1894639375578558
0.1928666842066097
0.2031577772107726
0.2142388800318738
0.2210627732454109
0.2261615022716649
0.2300005505815648
0.2323186238439725
0.2342729842531051
0.2363981298501288
0.2394864267996584
0.2441898898015492
0.2495236159066855
0.2561868136301597
0.2633035635477165
0.2700947393565863
0.2768465760259096
0.2841171715285605
0.2918279223998392
0.1864336292323988
0.190135464645437
0.2016844837159979
0.2133822413512644
0.2208732792449326
0.2268025376778695
0.2316840479458178
0.2355317720287294
0.2388202748406543
0.2430584380235568
0.2483431101255689
0.2550415434228891
0.2629593188541337
0.271253506500308
0.2795157784748736
0.2877588441676439
0.2967080380042755
0.3059724800006822
0.3150337266772203
0.183750844446618
0.1883874966265855
0.2014335646126046
0.213925131042914
0.222263281663519
0.2294703907694312
0.2352181181015105
0.2403480753194575
0.2449932806469504
0.2513355648034213
0.258975257143811
0.267143980471915
0.2768954480929229
0.2872160326617586
0.2976215982908714
0.3079600539364257
0.3192496299522873
0.3305411512287214
0.3413038672105513
0.1812660761127724
0.1877382493741577
0.2023910762628137
0.2156177093351206
0.2251571148266541
0.2329651992827984
0.2393017155833048
0.2454827506127182
0.2518481932077885
0.260032080200108
0.2700625513970743
0.2807829799628935
0.292562838820358
0.305229849460189
0.3179971203180754
0.3307953042543604
0.3438846497486378
0.3572472936653424
0.3704325792682987
0.1799887484786034
0.1881734020032835
0.2042635004735502
0.2178769588331474
0.2282077166911836
0.2368956192495329
0.2442526142195951
0.2515420378538143
0.2599275038542014
0.2697837984750715
0.282269110872442
0.2959865979675007
0.3099724804683859
0.325073399693901
0.3399911829069023
0.355280784263125
0.3709105977284105
0.3867879845481492
0.4025980279466455
0.1794364441249886
0.1888058808898164
0.206930344046642
0.2213413211497551
0.2319348260982761
0.2411579792866347
0.2493679362075177
0.2580842236087573
0.268814806792499
0.281029587056176
0.2954639539627616
0.3121551701062061
0.3287156257650002
0.3459507550371505
0.3634234732875406
0.3813187689753358
0.4002428642561571
0.4195598168107853
0.4388650706236168
0.1799172206205624
0.1908358231230269
0.2100005372805456
0.2249136267776707
0.2361364032611711
0.2451057928792782
0.2542936140728576
0.2655157202284887
0.2788673355335461
0.2934690897489865
0.3101772689006825
0.3290048420127169
0.3480243434685535
0.3674028373027616
0.3879530499304403
0.4098206061109887
0.4319520597084098
0.4551019246349332
0.4792841441992697
0.1810039746474416
0.1931144889625415
0.2127965844681814
0.2275998752626518
0.2394739995729525
0.2494970198896346
0.2599267083036788
0.2729663192689989
0.288370728220897
0.3055720707717972
0.3248347311522305
0.3456581207066032
0.3675482956183066
0.390228932163903
0.4138775916907003
0.4398535168440797
0.4666156456538507
0.494831986954965
0.527797664782428
0.1822120981630016
0.1951319885855458
0.2160025745290326
0.2308866014023208
0.2430544446722159
0.2540352291662478
0.2661742425283186
0.2808514383752444
0.2974074264718809
0.3172576761421265
0.3387815326639621
0.362487633860886
0.3881112930181967
0.4143752320348611
0.4414012335096214
0.4705218096316639
0.5031967510395874
0.5407206523124617
0.5876443128515136
0.183822410074481
0.1974580230046455
0.2193420048531428
0.2341798702298899
0.2468198484201028
0.2582833149493324
0.2721046212063541
0.2889889917384063
0.3076127292123206
0.3290460059783531
0.3526891446462389
0.3798582386627434
0.4085176948763934
0.4380079200352174
0.4697515947219737
0.5037763879768441
0.5434932982962828
0.5945829612106465
0.6550201234774767
0.185598846187812
0.1998981327094962
0.222431334831072
0.2372836161884432
0.2499682443268965
0.2628936556694962
0.278274566206157
0.2967371889621072
0.3180224133814988
0.3408542295781425
0.3669021341520656
0.3975235261234634
0.4293238199099068
0.4629980048588271
0.4991868312902857
0.5400000446109533
0.5910608491188475
0.6601423825392004
0.7240058648864092
0.1871146149034143
0.2021185622061484
0.2252940308044867
0.2401463960180408
0.2530931382722449
0.2671770572511395
0.2843702615949645
0.3048344687661574
0.3274772107236203
0.352031389419346
0.3812106370643057
0.4144007385916436
0.4502499026853634
0.4885084208934716
0.5292277867823653
0.5799172843065938
0.6469307469703781
0.7306336616465445
0.7774219210371278
0.1886397767235171
0.2039157348155317
0.2274005377632335
0.2426617900156701
0.2565782399332346
0.271802857052481
0.2901939302847803
0.3123258596517981
0.3365244786784558
0.3630912889483297
0.3957091278917983
0.4323778554850205
0.4722882418933612
0.5149430342096298
0.5618500659232091
0.6238589326647414
0.71083798335227
0.7985033264241526
0.8108917443207785
0.1894497632022499
0.2058732716746334
0.2295746400421598
0.2453759105270248
0.2601394973288581
0.2768001715026016
0.296741656534399
0.3194697881147691
0.3448971920277622
0.3739846214133574
0.4100318333396461
0.4514120119983679
0.4947506553681393
0.5423958860258368
0.5986557761148181
0.6747133727865805
0.778030121387785
0.8622600459888119
0.8127730986717283
0.1903855341555456
0.2075960311757468
0.232119733957424
0.2480778182795913
0.2635185007166914
0.2812044550262511
0.3026878651078296
0.3265429221524704
0.3530977220167107
0.3847300472326872
0.423667919338457
0.4687621187564181
0.5159169037981162
0.5690639976537288
0.6348325348444738
0.730609166870902
0.8517963806763605
0.9266553716585686
0.7594631893794549
0.191420223631374
0.2085889490422151
0.2341632148276117
0.2508119605659051
0.2665797085109683
0.285196612280327
0.3077406829532994
0.3328999150267738
0.361775779337684
0.3961577429207792
0.4380685575946756
0.4864867508552055
0.5384461822966354
0.5978315238609689
0.677646941680968
0.7941484860783748
0.9241188784567538
0.9400539283573592
0.6904423422008453
0.1925803494610189
0.210229501042297
0.236052407478407
0.2533511085497785
0.269802064179629
0.2892225538273014
0.3121885168818893
0.3381788777772367
0.3693411817401944
0.4071210198054805
0.4521268198064702
0.5034955696923836
0.560662565799434
0.6281776793558936
0.7249757335004452
0.8609803902702551
0.9834294519948656
0.9157374876288626
0.6338722287709742
0.1939493309202769
0.2122024818023271
0.238092377793243
0.2554388596498502
0.2729411419590692
0.2930565082472862
0.3161449000825377
0.343151632445991
0.37631819202315
0.4175150236420784
0.4661221349522544
0.5205789809976609
0.5824981700549436
0.6621304283364772
0.7748313512326929
0.9198129531589684
1.0231976707839234
0.9005511040589939
0.5759571407862281
0.1949165229589377
0.2132091240390124
0.2396930366273647
0.2577372739608772
0.2759392985689503
0.2966162557556875
0.3206556784865291
0.3488554810227056
0.3836276411325555
0.4273435526205263
0.4790387522485528
0.5373098134030284
0.6028471445367897
0.6937799712358912
0.8231468945178154
0.9711268075035616
1.023737621342659
0.8490334196841762
0.5206962830100342
0.1960968448276974
0.2141414050828829
0.2409917423607067
0.2600113023650599
0.2788180368140336
0.3000207983336165
0.3252918377694714
0.3544601530163955
0.3905770552370012
0.4358250646886475
0.4909764929690186
0.5538365674984872
0.6240912999635766
0.722593291743129
0.8662038977038027
1.0185496180155622
1.0264354210453874
0.8004862614041504
0.4747632437666791
0.1972270721980109
0.2151950851165461
0.242264297236829
0.261743134278456
0.2813816423331063
0.3033907218017867
0.3291350354610974
0.3590712502886755
0.3967108109727327
0.4438168722719192
0.5023524609504227
0.5682612017736688
0.6464422830059525
0.7560618897948931
0.9141668442209384
1.0693458247000884
1.047299890782342
0.7776425237191388
0.4449524351303307
0.1981157232426705
0.2165552814742749
0.243826116347469
0.2630817147045186
0.2834605982164411
0.3063617623174353
0.3323819655158044
0.3633469036823784
0.4024758244038244
0.4519664426490717
0.5116573370182955
0.5804735800200507
0.6682702905658603
0.7880203282931398
0.9543792590321688
1.0957035210820327
1.0437796263687802
0.7524582667386562
0.4247589378690788
0.199241131997159
0.2182663268617708
0.2453690523154018
0.2644797847217807
0.2848657435948784
0.308369677470729
0.3351505605273301
0.3676015328286844
0.4074153864986652
0.458596454994039
0.5209881487459521
0.5954395386561191
0.6913187756799921
0.8152106501866525
0.9868407872035232
1.0943447963213684
1.002845721635001
0.7136298291025064
0.4047941280832676
0.2002910095327122
0.2195967036129909
0.2464494978618413
0.265651624433092
0.2862378480132582
0.3100272256442972
0.3373501658698543
0.3718324633396123
0.4123431940546995
0.4642953385140667
0.5294125403238181
0.6078597565334819
0.7070950667184254
0.8402475033923527
1.0231173952231245
1.0953426194064926
0.964009136371471
0.6765639705192495
0.3868541285575273
0.2011855390132098
0.2203492108653481
0.2475730135698002
0.2668165118513793
0.2877968389122935
0.3120994483508843
0.3399651166975753
0.3755692683364277
0.4177966122303378
0.4713918877879831
0.537763029292623
0.6182132184887039
0.7204089751144712
0.8673006781672828
1.0579109559132365
1.1092103060171257
0.9546195142170738
0.6539367214220446
0.3715912670094334
0.2026632115425619
0.2215160996971176
0.2491564034072962
0.2685083495514621
0.289768224405332
0.3142846338647761
0.342481000631312
0.3779773289228882
0.4217091620795739
0.4779382267180277
0.5466015121623256
0.6299228606595515
0.7370345855197995
0.8944536482748751
1.0865045944649854
1.1295445670369726
0.9552673139668773
0.6375715929454445
0.363686195449058
0.20383452881758
0.222420034992674
0.2501012670294291
0.2699398956549227
0.2917624416235104
0.316251200610292
0.3448212322056656
0.3802349931073546
0.424921669640233
0.4824084203661615
0.5518629144185004
0.6391716102846221
0.7504748457982928
0.9167225417176452
1.1070649016350322
1.141643214176679
0.957644976027638
0.625356966621751
0.35530566237505
0.2046695064635696
0.2227941454112442
0.2505335551437408
0.2711209266621808
0.2935211308515651
0.3182985382220364
0.3468579073717134
0.3825270105080636
0.429049324849834
0.4872931281733016
0.557079984715391
0.6476368347933201
0.7599961130858843
0.932293347894004
1.1231465623627228
1.152815409108964
0.9605372567562752
0.6157571116237858
0.3463105164857386
0.2055890911815378
0.2235777433298863
0.2514679154186638
0.2725082307334254
0.2950523190675748
0.3200730809496362
0.3485073791607874
0.3848177239000765
0.4329783466258396
0.4918523339457995
0.5636876205925544
0.6551425278588207
0.7674238850390972
0.9468389066842642
1.1428769502477063
1.1639751207716336
0.95614771846943
0.6092428199781198
0.3429596148497042
0.2065387150687025
0.2245857132439134
0.2526955296717494
0.2739352029113062
0.2958186630280087
0.3214843077568751
0.3504262225318456
0.3870020558550094
0.4359349308860865
0.4951357596532318
0.5675173696343472
0.6607691716236056
0.7774478599128245
0.962037012244304
1.1584575420440657
1.170565982190426
0.9528390347764146
0.6066631084419859
0.3425905562452024
0.207868725905565
0.225479125594488