/*--------------------------------*- C++ -*----------------------------------*\
| =========                 |                                                 |
| \\      /  F ield         | OpenFOAM: The Open Source CFD Toolbox           |
|  \\    /   O peration     | Version:  2112                                  |
|   \\  /    A nd           | Website:  www.openfoam.com                      |
|    \\/     M anipulation  |                                                 |
\*---------------------------------------------------------------------------*/
FoamFile
{
    version     2.0;
    format      ascii;
    arch        "LSB;label=32;scalar=64";
    class       volSymmTensorField;
    location    "0.0065";
    object      tauij_LES;
}
// * * * * * * * * * * * * * * * * * * * * * * * * * * * * * * * * * * * * * // 
 
dimensions      [0 2 -2 0 0 0 0];
 
internalField   nonuniform List<symmTensor> 
13597
(
( 0.1935461750468349 0.0263196720959808 0.0077936914519411 0.0811504813342353 -0.0389818491740241 0.1898334656237139 )
( 0.1954383008140019 0.0303620137588439 0.0046865838554587 0.0814547468319344 -0.0389173158746476 0.1878644700221728 )
( 0.2001864363597942 0.0383366378803604 -0.0016405871678878 0.0816605136553489 -0.039084085789074 0.180873769046681 )
( 0.2074334337306282 0.0493539705687204 -0.0105136991476708 0.083669296740414 -0.0406530489318863 0.1711829316800902 )
( 0.2148353565070258 0.0584830365029465 -0.0187119261386483 0.0854588287273744 -0.0423827109780131 0.1625268572558283 )
( 0.2217937864893778 0.0643410308201071 -0.0248045826978275 0.0850445466389013 -0.0426544405049788 0.15507763553652 )
( 0.2280427228363044 0.0693695809871075 -0.0302262346826481 0.0839410227535289 -0.0425334102449389 0.1467375146214105 )
( 0.2349733724177267 0.0738293590158214 -0.0348364573984322 0.0818418433741955 -0.0414407334684087 0.1380057726647968 )
( 0.2419149396305695 0.0769668574493215 -0.0376566947854632 0.0786988009768404 -0.0394759361659259 0.1292252811396885 )
( 0.247777071019652 0.078777117233573 -0.0391753408062119 0.0751184640352091 -0.0368617656475557 0.1207970860450135 )
( 0.2546892715937001 0.0796547377915153 -0.0393946440949332 0.0706829878965249 -0.0330935005490163 0.1138805535262251 )
( 0.2610992622797519 0.0797665501814888 -0.0380950729237936 0.0667994058957948 -0.0287446609306387 0.1076372454276114 )
( 0.2666114635744153 0.0784945952460649 -0.0350851660811251 0.0629737595935753 -0.0236597124332783 0.1021989633928945 )
( 0.2720159789776613 0.0760364894756629 -0.0306959261550592 0.0594456553469134 -0.0180741157292816 0.0983390835787737 )
( 0.2762039903386135 0.0725566542703605 -0.0255471448156974 0.0569620857660845 -0.0129250342171447 0.0965476927683912 )
( 0.2800359814234481 0.0685123476336441 -0.0192888349601228 0.0551222566756695 -0.0077845339521305 0.0964633325189973 )
( 0.2840579816852541 0.0643156231042861 -0.0118524964166996 0.0544659836833279 -0.0022937872173931 0.0966009624278474 )
( 0.2863893033333241 0.0594617695212909 -0.0052532696157862 0.0549609339569898 0.0026892070267732 0.0975805731551132 )
( 0.2877865603698036 0.0545056731196612 0.000486785797608 0.0565055225340906 0.0071063369806903 0.0993345120105347 )
( 0.1974975095178043 0.0275671559842043 -0.0007454762517379 0.0880304864103923 -0.0326977544661971 0.2098375493628325 )
( 0.2002371966375327 0.0326028644255471 -0.0047698184057918 0.0884336735901024 -0.0320371557820655 0.2088164928460467 )
( 0.2048620340607373 0.0439000985213639 -0.0123159866922227 0.0880494361305097 -0.0330157607606194 0.2017403002761465 )
( 0.2119573156461465 0.057503211725818 -0.0214182987298429 0.0891798337965354 -0.0357335833246179 0.1953894446442948 )
( 0.2183926585736408 0.066762074336048 -0.0279446380776194 0.0886862114989171 -0.0372669542416935 0.1903200378984795 )
( 0.2240742226407525 0.0736910924628425 -0.0317730977374468 0.086504271901897 -0.037533605051023 0.1848775596097918 )
( 0.2289660796099465 0.0793352011628881 -0.0340771839842269 0.0836237261535813 -0.0372877330083941 0.1792171759120522 )
( 0.2334926906868371 0.0840138329108612 -0.0345054449557793 0.0804257172744653 -0.0362286073862545 0.1741000557193549 )
( 0.2383571792652962 0.0876360015699135 -0.0324683046269242 0.0768283980522002 -0.0341463525169887 0.1690644923836192 )
( 0.2414672388871967 0.0889395283874563 -0.0285459260953916 0.0728584961766601 -0.0313850894613413 0.1642274715063059 )
( 0.2439857552359326 0.0888517266262901 -0.0228594033032716 0.0691484370486046 -0.0276186578549627 0.1608386817466977 )
( 0.2453348131600116 0.0879939215378143 -0.015176039708236 0.0663465697666612 -0.0228959612727676 0.1579806200166447 )
( 0.2449373090485982 0.0850639173790755 -0.0070719965524345 0.0643269726301114 -0.018046961390176 0.1561355893544432 )
( 0.2443047003049813 0.0807293340696825 0.0006243995897443 0.0633749866946166 -0.0132196194513796 0.1556740291013991 )
( 0.2442192117382021 0.0762922494557186 0.0079733298566296 0.063902522833259 -0.0086617186547241 0.1561798950676448 )
( 0.2428558760165021 0.0715394889771228 0.0140238268040613 0.0653855924005153 -0.0044897717617969 0.1569589180914847 )
( 0.2409495709625755 0.0668719099367059 0.0190676511271901 0.0674375134411042 -0.0004740269027391 0.157348445642343 )
( 0.2396128750705349 0.0620065332390491 0.0225014977252191 0.070464830873638 0.002960406316006 0.1581316671703921 )
( 0.2381730207069156 0.0573276245067651 0.0240537560640897 0.0743088777447044 0.0060191945642566 0.1593308072068069 )
( 0.1982996105877006 0.0289585424498972 -0.008774666550942 0.0955641877717982 -0.0243231493307956 0.2213923303748075 )
( 0.200161385306102 0.0353816602007587 -0.0126998603600089 0.0969499519681861 -0.0226608160352735 0.2189753402651961 )
( 0.2028642802314377 0.0489330707688036 -0.0177239112789492 0.0966553911805167 -0.0240052106504277 0.2110236461376132 )
( 0.2075054235604843 0.063644532486485 -0.0226338573639138 0.0966976869417524 -0.026948317695521 0.2049399238004975 )
( 0.2116534751809287 0.0726935827644306 -0.0242550635292689 0.0957529045367735 -0.0280650592944113 0.2016643571963094 )
( 0.2157313501067604 0.0788969411161568 -0.0231295399081128 0.0932610801898343 -0.0286655429029617 0.198390248073587 )
( 0.2183470312935986 0.0832887801189274 -0.0195106621107146 0.0898619376278162 -0.028439112939575 0.1949377034805732 )
( 0.2195645513918186 0.0860902863077413 -0.0139210789696727 0.0866321015439341 -0.0271509694519753 0.1926861488993304 )
( 0.2211344708937026 0.0871033117991278 -0.0067485375032893 0.0833346769037122 -0.0247394199378974 0.1909442304057464 )
( 0.2220107949573982 0.0857647113574402 0.0018216651366682 0.0800022166417959 -0.0212195349290524 0.1899836881245654 )
( 0.2213018217826856 0.0823441631644058 0.0102230158735754 0.0773963959431465 -0.0173441381924671 0.1896972542838406 )
( 0.2204083238762363 0.0780088780531033 0.0182620352273113 0.0761799218392523 -0.0127025335087172 0.1901592368995506 )
( 0.2191560549666003 0.0721900563509944 0.0247597331485795 0.076675912346538 -0.0079308443706394 0.1909573580781386 )
( 0.2174530947372614 0.0659040023971694 0.0288725191162785 0.0783313528481136 -0.0035945200961429 0.191575670650733 )
( 0.2167265603830161 0.0607180310350619 0.0312213185496031 0.0806308698927201 0.0005096670833165 0.1923267334296798 )
( 0.2157067816173366 0.0560874895676412 0.0314081773576032 0.0834061630790207 0.0038769533215295 0.1924133642062867 )
( 0.2147277007056662 0.0519595867599359 0.0302918068012733 0.0862176250549991 0.0066989801123771 0.1919685725747855 )
( 0.2148249319264206 0.0483931723990101 0.0280135495041812 0.0891036039923506 0.0092592946187105 0.1910687287840892 )
( 0.2152774022762023 0.0453978226490916 0.0243546655764889 0.0918695046717521 0.0116379826607229 0.1891631583982432 )
( 0.193976631164937 0.0322185517165023 -0.0136157418136719 0.1042153535867559 -0.0141463592448903 0.2241037790794518 )
( 0.1932643807852879 0.0408670636225348 -0.0152288622824162 0.1072113489243209 -0.0120839919945043 0.2200609524323698 )
( 0.1942729204464903 0.0551202783249452 -0.016015278126533 0.1075827851101088 -0.0139411930959563 0.2118425496811349 )
( 0.1981183303110935 0.0692220306354813 -0.0156001327220884 0.1076890395490412 -0.0173331133821057 0.2073097584734707 )
( 0.2013437529052755 0.0774611087748695 -0.0121978568394164 0.1070832330510729 -0.0185774685517628 0.2068625578844958 )
( 0.2036448399082449 0.0818700949992136 -0.0067237088535119 0.1045695199672418 -0.0188955274957398 0.2065743723845375 )
( 0.2046698585119625 0.0837392982562572 0.0006495939530321 0.1010939592750907 -0.0178468141245089 0.2066525578943676 )
( 0.204683277328304 0.0833681741664332 0.0087353391975103 0.0976191570255727 -0.0150793573661837 0.2084664941662447 )
( 0.2044767020501799 0.0808338481743465 0.0163969119860886 0.0944599438225062 -0.0115045817627044 0.2100172097332374 )
( 0.2035835681811539 0.0771306549330527 0.0233075273011276 0.0922542881925572 -0.0070079768675029 0.2113198279918093 )
( 0.2013551019704951 0.0716736360549016 0.0283698624424229 0.0910481481560725 -0.001997989624407 0.2116393068775433 )
( 0.2008008406452685 0.0657547795593846 0.0311069685749337 0.0912877945869224 0.003176475662617 0.211427282104261 )
( 0.2008450938470293 0.0602346773180963 0.0313794534154077 0.0929596013625946 0.0085962472600885 0.2103998312384127 )
( 0.2009318561933462 0.0553744412409059 0.0296994242984793 0.0956622793500844 0.0137371703497374 0.2090392555831379 )
( 0.2015309655344579 0.0523166201081502 0.0265323761330405 0.0983725837742537 0.0180349031540141 0.2076345531646594 )
( 0.2024523219517034 0.0504626875550309 0.0224829920542563 0.101004145906564 0.0213958575262585 0.205775353926127 )
( 0.2042242582277179 0.049172899877066 0.0178481929019645 0.1034697269997951 0.0240158054945632 0.2036341307867675 )
( 0.206648398449354 0.0486675399663028 0.0122492416698707 0.1057128783854106 0.0263921469752328 0.2015668593946224 )
( 0.2096277021980368 0.0489310131093721 0.0053837312546617 0.1076063047544158 0.0281405304583 0.199183797597017 )
( 0.1854416742847268 0.038648985421022 -0.0143974813944138 0.1150578535877342 -0.0039648144053831 0.2218442576671846 )
( 0.183833753384404 0.0487669224686899 -0.0129845833110522 0.118235752411146 -0.0026376283877585 0.2160887901027597 )
( 0.1855221408268893 0.0631110588644362 -0.0104654655030235 0.1191459957160706 -0.0057070382918512 0.2105263804517852 )
( 0.1888585810399133 0.0752872001696299 -0.0059756920770582 0.1193608960609187 -0.0088378593418433 0.2109561029291405 )
( 0.1903126806124912 0.080930569908852 -4.195717511042488e-05 0.1181124660823151 -0.0093381324782555 0.2136164972857059 )
( 0.1903160105720579 0.0832701169468748 0.0062024995421401 0.115622663921844 -0.0080787333729148 0.216868468802767 )
( 0.189385609520303 0.0824027963807515 0.0133005551231605 0.1117480095667637 -0.0051052342819338 0.2199116464397554 )
( 0.1878312095509917 0.0794090516455586 0.0190517709348924 0.1085360349368141 -0.0005728289969957 0.2221381851416658 )
( 0.1856904396076498 0.0753144788368574 0.023611662639982 0.1065591177802827 0.0051001984273045 0.224001996160572 )
( 0.1834556887969223 0.070576051670647 0.025991478299937 0.1055938901845359 0.0109530368231814 0.2244332239600096 )
( 0.1824307963401877 0.0658158055933057 0.0261582673806476 0.1061801780548961 0.0173806264727585 0.2236899463875806 )
( 0.1836518665518479 0.0616202740324775 0.0242506120275666 0.1082553050613446 0.02379860836062 0.2222564911445489 )
( 0.1856782103676723 0.0587829795835897 0.0199590121503848 0.1111346698843261 0.0298932310018168 0.2202124523297422 )
( 0.1885521590280867 0.0576947260851476 0.0147881593897528 0.1145469650432801 0.0351827004042087 0.2186933254588477 )
( 0.1918458160153118 0.0582341062139837 0.0088711314768263 0.1178734042949166 0.0391029202690471 0.2174983864888277 )
( 0.1951394170895649 0.0597500356821428 0.0025295400742963 0.1208554559798224 0.0418769543672056 0.216593607788092 )
( 0.1988803853823491 0.0618187193189072 -0.0041194568692862 0.1231867826597531 0.0437908199656134 0.2158081228542041 )
( 0.2033799703060996 0.0646512327469179 -0.0111745440131015 0.1249220044486758 0.0450334023726778 0.2155384089064324 )
( 0.2088924360385916 0.0682316115138074 -0.0190724308296428 0.1260311766294038 0.0448454240499451 0.2153854124678921 )
( 0.1752839754447033 0.0474888020521475 -0.0123502940053439 0.126780979585148 0.0049442926253451 0.2180947861355118 )
( 0.1730549776038871 0.0585545664769927 -0.0093086203096466 0.1299440215135555 0.0051211564897972 0.2125944691045691 )
( 0.1753402819939802 0.0719194995323949 -0.0050526062648981 0.1303877128124685 0.0010042800140567 0.2109074511948972 )
( 0.1775095117451242 0.0807379461467596 0.000633831847837 0.1298473797313739 -0.0013967787077973 0.2160422885988098 )
( 0.1769807420343692 0.083034458216323 0.0064960668719128 0.1274175737528886 -0.0001434679356574 0.220843785128861 )
( 0.1757476345463142 0.0827308130907503 0.0119218690025202 0.1245510419060677 0.003467383235829 0.2254942332088895 )
( 0.1724321317783746 0.0800987922520463 0.0164751506312094 0.1213816230021746 0.0086039520243754 0.2287966582324375 )
( 0.1693047986633946 0.0762359130305276 0.0184594460679099 0.1199334129717379 0.0150427841395338 0.2299483192918903 )
( 0.1671536350340693 0.072393864343397 0.0194258473612609 0.1202898409694179 0.0229370745740936 0.2311057144317893 )
( 0.1656495125891953 0.0689035705188257 0.0187558068411029 0.1213506950923522 0.0308885301174806 0.2312463472417993 )
( 0.166704523069269 0.0670536724052687 0.0158822204026109 0.1238195458749448 0.037991765422417 0.23038073525667 )
( 0.1695532559242902 0.0665282253481154 0.0106151010620506 0.1273629103889667 0.0440976357674409 0.2292296223641535 )
( 0.1738723136961171 0.0674415264946459 0.0043024586488249 0.1314861990841833 0.0498434151721116 0.2285655545399336 )
( 0.1796327078886436 0.0703513487288997 -0.0020068798826074 0.1353863938394399 0.0537371612332482 0.2280933231423618 )
( 0.1854154638666838 0.0740398564411067 -0.0084692956738518 0.1389334951664604 0.055953437397472 0.2284929540185448 )
( 0.1910625401091595 0.0782306210921845 -0.0147140895013381 0.1417953237976712 0.0571585250281969 0.2296040131932676 )
( 0.1967344238099359 0.0829843034701064 -0.0209205394987993 0.1437599478415857 0.0572414827906457 0.2310342211912047 )
( 0.2032521783290141 0.0883354124610715 -0.0271597453441116 0.1449906065295609 0.0559659517304992 0.2323722496598378 )
( 0.2111922563173035 0.0942438195577799 -0.0339999343255192 0.1452736877171536 0.0529676004201659 0.2340365549374608 )
( 0.1637558150032822 0.0579682730424287 -0.0090480457297107 0.1383618803815768 0.0121101419071991 0.2148267776871326 )
( 0.161911868896647 0.0686233589388702 -0.0053481742696777 0.1407640078724727 0.0111626516948386 0.2117977292121726 )
( 0.1640973035797169 0.0785928765906738 -0.0009486608298805 0.1396723977968102 0.007123400475205 0.2141369549259381 )
( 0.1639105445625041 0.0834427305297653 0.0036245932443775 0.1385140797937636 0.0061648831776858 0.2211287942311913 )
( 0.1613818458049422 0.0833864070635833 0.0079224719644584 0.1361375885299961 0.0095617303717481 0.2261480379492807 )
( 0.1582167754841819 0.080954361005021 0.0119180120174936 0.1338014713709132 0.015491319201118 0.2304755543683622 )
( 0.1540189123994351 0.0776004455256073 0.0137702814133036 0.1325276237170732 0.0228543141294679 0.2327949592132695 )
( 0.1508961950405814 0.0745684717852437 0.0135856653479672 0.1329944252116093 0.0310959790175064 0.2335907808516265 )
( 0.1500080532322429 0.0729949127344516 0.0124640756803236 0.1359849828972494 0.040354318734889 0.2345122360527327 )
( 0.1513725172643207 0.0727778087479755 0.0098454889293493 0.1395076677022176 0.0487444016141206 0.2348438285860737 )
( 0.1547359102692236 0.0741052391858833 0.0053535543686089 0.1437632468017329 0.0555435742523045 0.2346272748710963 )
( 0.1600701883880123 0.0771950271981434 -0.000544002509284 0.1485574790176362 0.060769947038334 0.2352703930630127 )
( 0.1670587959780875 0.0816549903790058 -0.0067680424151747 0.1528403846249415 0.0643494702333853 0.2366754703123654 )
( 0.174958591722359 0.0873122387397519 -0.0127459024970895 0.1566622489029953 0.0659910051431867 0.237899841512683 )
( 0.1832764683820976 0.0933087167515408 -0.0184967067189507 0.1600007478572191 0.0659539875006605 0.2397740454805746 )
( 0.1911486210259616 0.0997458428756815 -0.0236458397925905 0.1626110133329752 0.0650159794243446 0.2420830485650807 )
( 0.1989603394724018 0.106408260295338 -0.0285310271233202 0.1645627222167808 0.0628620435757531 0.2443763988722528 )
( 0.2078081739544229 0.1135658065152959 -0.0336362596527755 0.1656206472403675 0.0590448102991066 0.2468627973004445 )
( 0.218250178295617 0.1212976983226163 -0.0392369091822995 0.1655565250750568 0.0534530227281629 0.2496605791307445 )
( 0.153275006766749 0.0681127966091991 -0.0058820831755594 0.1490254701260974 0.0170985492920431 0.2130597430752583 )
( 0.1520182173782343 0.076881858101845 -0.0025086243983024 0.1504163946307047 0.0153518186188972 0.2124216164424047 )
( 0.1529942777657092 0.0828595319657106 0.0012408531394719 0.1478706926083764 0.0124463400568879 0.217540215461245 )
( 0.1505042512684654 0.0839442363328967 0.0047339399128208 0.1462478714889171 0.0138992117583214 0.2243853962910066 )
( 0.145459958919214 0.0820131834689583 0.0073604468005894 0.1448852180736232 0.0197814100299163 0.2282746611454146 )
( 0.1403184768541711 0.0791859799778606 0.008683824857971 0.1440851477752644 0.027708877706583 0.2311934091996121 )
( 0.1372048788101709 0.0769366455261369 0.0093499671333918 0.1449500575202594 0.0372000054432494 0.2331720013982476 )
( 0.135674436424233 0.0756428734008581 0.0084295106776593 0.1480207280636137 0.0464694391865448 0.2345807446697208 )
( 0.1358882177880302 0.0764705823567016 0.0060549172977888 0.1535480180789 0.0554034893430693 0.2359102904726521 )
( 0.1402267988630499 0.0795959130638423 0.002857858586909 0.1590870868020194 0.0630879736544814 0.237028092456427 )
( 0.1465396319449635 0.0840686942518998 -0.0017802143161563 0.1646819395705947 0.0688313717558205 0.2386053359585677 )
( 0.1548898772210487 0.0901353514727564 -0.0068707209593821 0.1701101981599151 0.072622503752742 0.2413562171196502 )
( 0.1650445544066663 0.0975361682428188 -0.0121087862856838 0.1745020924993932 0.0733925393257921 0.2440058432168089 )
( 0.1753478716915946 0.1055220486301788 -0.0171209372211648 0.1783548520067088 0.0721846504887597 0.2464378285866805 )
( 0.1854960885490814 0.1134121550658144 -0.0217372848636725 0.1814534185307952 0.0698747811081201 0.2491478799550646 )
( 0.195145960872019 0.1217713954451566 -0.0257552129637804 0.1841256728819358 0.0665185976920272 0.2521812118393043 )
( 0.2052048537661466 0.1302592741997484 -0.0295427854580684 0.1862394986689481 0.0621050830937626 0.2551895817019511 )
( 0.2164312014340179 0.1391259188352563 -0.0337121798590846 0.1874215296101368 0.0561547818815037 0.2584943837765231 )
( 0.2291644379218943 0.1484685898397698 -0.0383669377719188 0.1874701431922874 0.0484548607197715 0.2616365837130217 )
( 0.1435854709467675 0.0765835226730201 -0.0034492361255327 0.1582499393347985 0.0205259682064707 0.2116778659154743 )
( 0.1414861475005208 0.0825338561613571 -0.0012784774684192 0.1588953798578858 0.0186732128969222 0.2121444762593789 )
( 0.1406080723784562 0.0845049526559823 0.0011731664928102 0.1556738288203947 0.0175050902636003 0.2177990850134864 )
( 0.1365055597197205 0.0830650908783231 0.0036488749404541 0.1543986625796334 0.0218530566459591 0.2233798706109934 )
( 0.1305142534924004 0.0804249247966882 0.0053192638062518 0.1543409048558738 0.0304125883249611 0.2264049450006874 )
( 0.1251598141399957 0.0780252052336279 0.0053864424030702 0.1553343162873093 0.0397838004716937 0.2289768665038737 )
( 0.1228682036998819 0.0776579367674526 0.005255522562485 0.1583459203446443 0.0497801574495592 0.2309433471141389 )
( 0.1232669200990707 0.0788522283657223 0.0043120602220141 0.1642522717306625 0.0593141198314216 0.2334001962581665 )
( 0.1255964709519116 0.0816733183842137 0.0019536863454129 0.1714268495976063 0.0673500849106741 0.2363495993302891 )
( 0.132574142763296 0.0877891044262695 -0.0009309968136382 0.1788085342468909 0.0738567711139776 0.2389536350061872 )
( 0.1424399573963839 0.0954425155199646 -0.0049872116374828 0.1853176254934395 0.077377756043422 0.2420890327747219 )
( 0.1533564689437689 0.1037734238655146 -0.0091728307044987 0.190911370084116 0.0786811599173186 0.2465577327683955 )
( 0.1661249890827679 0.1138914030397326 -0.013162072649054 0.1961586585817032 0.0772187725188459 0.2497903052811594 )
( 0.1788431908671788 0.1241033975975169 -0.017156855256596 0.2004429465904486 0.0736525898016203 0.2531957305369365 )
( 0.190497291159513 0.1335521676510969 -0.0206831351249031 0.2038087010684592 0.0693369610210334 0.2569442871517292 )
( 0.2019513251617789 0.1436125493998645 -0.023848190456843 0.2070176229180248 0.0638541582860987 0.2605467587985143 )
( 0.2139925442051778 0.1538939487785426 -0.0270089688239216 0.2097952174151805 0.057372118178017 0.2636918052338108 )
( 0.2276621913199157 0.164727786774386 -0.0306432552134228 0.2116224344681441 0.0495624527511678 0.2665394381107132 )
( 0.2431531154458997 0.1761636782061247 -0.0350143005965902 0.2122764786675811 0.04014033636611 0.2692054041393414 )
( 0.1359088973581377 0.0829163026550963 -0.0020581701916641 0.1666689176688353 0.0236487233550055 0.2104875365354423 )
( 0.1326664521203607 0.0849880015431161 -0.0009862065935957 0.1654414485119639 0.0219957784487316 0.2108143201896856 )
( 0.1284179342662448 0.0835499824225706 -0.0001291186658863 0.1624490538523378 0.0230591892601373 0.2145666152256933 )
( 0.1224166583433436 0.0810063452636778 0.0012771939059152 0.1627324290068671 0.0301303090834123 0.2189687584694724 )
( 0.1167229338980288 0.0787148843382149 0.0025946596241318 0.1641650536667236 0.0401671501093871 0.2227440886284429 )
( 0.1124695645428119 0.0775019447739895 0.0030715108398404 0.1676061196319972 0.0504756814284619 0.2256534288645176 )
( 0.1109415440717058 0.0788640976421906 0.002480764946936 0.173472928342446 0.060373204458606 0.2275102946390215 )
( 0.1130916958993327 0.0827819883397273 0.0016750630521102 0.1814844031990348 0.0698491007064784 0.2313427386621204 )
( 0.1185594611743933 0.0883368201163117 0.000326121719344 0.1900862676981775 0.0770274652785855 0.236248392936876 )
( 0.1281083187069726 0.0967969624790177 -0.0019365713293763 0.1984262188412119 0.0812951323603204 0.2406268511267824 )
( 0.1411886683652648 0.1070559661869594 -0.0050809591629409 0.2055866341606533 0.0823670979676094 0.2452863536890122 )
( 0.155052200291047 0.1177411204463671 -0.00841009216287 0.2117364257760045 0.0808591509597407 0.2504573463879146 )
( 0.1692111854354756 0.1297323530708278 -0.0115067100196795 0.2178252985616047 0.0774106197132015 0.2548461817299347 )
( 0.183399076045134 0.1416065273140617 -0.0147285268063573 0.2228451370545119 0.0720973078768835 0.259159936216738 )
( 0.1968371750454851 0.1531541504574162 -0.0174445773353278 0.2272975033990938 0.0658380244559871 0.2628017275159167 )
( 0.210143868712424 0.1651280505336379 -0.0201144829904519 0.2317857264394365 0.0585754802959044 0.2660956400193139 )
( 0.2243220745866912 0.1775878197655445 -0.0232377986465444 0.2360678890834013 0.0502995774534942 0.268765736006418 )
( 0.240678859180132 0.1908923127177584 -0.0269997871483159 0.2391880068253734 0.0408707983029983 0.2705451666441629 )
( 0.2595083384373255 0.2048446782043401 -0.0317440019158564 0.2406290733767428 0.0301173130984968 0.2720972010577187 )
( 0.1302194391965461 0.0860725785803353 -0.0012370277707528 0.1720880714754996 0.0256960886353979 0.2089825820585335 )
( 0.1248021969147712 0.0848194163521744 -0.0016228722166986 0.1699903177478791 0.0250141511427482 0.207115180705273 )
( 0.1174364616701774 0.0813557732384346 -0.001784570952717 0.1689092930946823 0.0292114328212142 0.2092043679670773 )
( 0.1099969470218052 0.0781343815191806 -0.0008331208827381 0.1709565768317869 0.0381156324422239 0.2131900880791093 )
( 0.1040458573241369 0.0763681622209207 0.0005280018057689 0.1745296624358689 0.048783214187249 0.2174389613223582 )
( 0.1013709826993129 0.0772170583041701 0.001248264420702 0.181108767139182 0.0596553858696567 0.2208881040898421 )
( 0.102197993657171 0.0808475882209528 0.0013002701628865 0.189832422406882 0.0696007266021817 0.2245608871683486 )
( 0.1064266003299305 0.0866500840339522 0.0011534801132161 0.1989334377538859 0.0780763191515435 0.2305705927350714 )
( 0.1147564767713223 0.0944798259422434 0.0004041281564446 0.2085491093643055 0.0834861960103867 0.2366279079693697 )
( 0.1263221222399609 0.1050055785845511 -0.0010209242100513 0.217733116328691 0.0854194770071342 0.2424771172803617 )
( 0.1409357569470624 0.1174908354543342 -0.0031319470798558 0.2257454762861335 0.0843014504083063 0.2481584733268146 )
( 0.1575395717762383 0.1310993309239112 -0.0057391231618712 0.2331055221114049 0.0806561297211238 0.2535396536890502 )
( 0.1731251068462883 0.1447659801636135 -0.0083376516959774 0.2399477619112491 0.0752277286855566 0.2585966314476997 )
( 0.1885793760609073 0.1582472372124578 -0.01119157528873 0.2460764648255301 0.0682532530750232 0.2628401973345655 )
( 0.2041339111003316 0.1724763807753831 -0.0138506388221733 0.2525398701072359 0.060254003055618 0.2660414294586662 )
( 0.2194627394129873 0.1869326627418415 -0.0165706733956986 0.2592655859275321 0.0512987976147892 0.2684486945889328 )
( 0.2363288939071704 0.2022021658955795 -0.0198829715190967 0.2654938206247014 0.0415548102820279 0.2701991781809108 )
( 0.2555971252535017 0.2182622650469721 -0.0241456854337228 0.2701530814669029 0.03114260073433 0.2711729232198758 )
( 0.2782203608450463 0.2353661166670752 -0.0297201878554753 0.272888489321897 0.0195857535011994 0.2718214860709724 )
( 0.1232861216521583 0.0857751530336476 -0.0014849059947333 0.1757402605408374 0.0273038531009227 0.2046323867186121 )
( 0.1155691694879493 0.082042513889484 -0.0032270448714495 0.174223421956996 0.0282915290330452 0.2003079062939661 )
( 0.1063910340335485 0.0776187938943225 -0.0032068132975514 0.1758042764974744 0.0353139564880397 0.2029148439687266 )
( 0.0985426877491367 0.0747548424310717 -0.0020253680236498 0.1796522191020101 0.0454312122261133 0.207237480419477 )
( 0.093606765078177 0.0745370835364948 -0.0003948294040767 0.1858902893485295 0.0568044536774824 0.2116272266920392 )
( 0.0927746764076646 0.0774148796285214 0.0006180648994889 0.1948534771599783 0.0677877457957876 0.2166241258293471 )
( 0.0960829477416977 0.0828340486109072 0.0012276669926648 0.2049660714451738 0.0767412236065246 0.2231933937552613 )
( 0.1027093572668343 0.0903674006465026 0.0017651100165811 0.2160303019488489 0.0836886022440728 0.2307973932033286 )
( 0.1131122177394386 0.1003917793348755 0.0017938155622858 0.2267468416775314 0.0871634053464897 0.2372230187891816 )
( 0.1263528958718789 0.1129485561924546 0.0012881943801225 0.2367786270221749 0.0871354819095085 0.2435583871529808 )
( 0.1421413395585969 0.1273188633294788 -0.0001109574476204 0.2462180703535295 0.0841520899638207 0.2499138838556662 )
( 0.1598023931086276 0.1431877858303866 -0.0022520734488672 0.2553373401029249 0.0787362503263041 0.2558163521024152 )
( 0.1772297241021656 0.1591966934070235 -0.0047366385656046 0.2635938944874115 0.0713447964552591 0.2604929607293811 )
( 0.1948120586703725 0.175415275273064 -0.0077934363466653 0.271515709859762 0.0625430057435261 0.2642637930197599 )
( 0.2122181145642745 0.1924400049205371 -0.010839614505678 0.2808186735987763 0.0530628136569494 0.2670770542719612 )
( 0.2294738824892319 0.2095414637764227 -0.0139461532604258 0.2903338096051039 0.0430315447694666 0.268699995993568 )
( 0.2486511218914697 0.227645080647802 -0.0178141685167959 0.2987757187716371 0.0323300958115772 0.2696089814983893 )
( 0.2717318561997228 0.2472323558905338 -0.0228420603282533 0.3052854152833668 0.0211438100658475 0.2700306022695697 )
( 0.2996442378424835 0.268516030651857 -0.0293981540374082 0.309665006868445 0.0090859148604728 0.2700006920360975 )
( 0.1163255412960979 0.0829265210306374 -0.0025561000927972 0.1801092088037617 0.0291804494829579 0.1979331905708191 )
( 0.1059966986150024 0.0770285598357487 -0.0048568166825522 0.179105687838693 0.0322150972097264 0.1929227980669115 )
( 0.0957176513882745 0.072956639835345 -0.0043146390270707 0.1823944473770188 0.0411921726289724 0.1964056076389746 )
( 0.0890388576692967 0.071651790816906 -0.0027314666321883 0.1886467311065939 0.0518858814613144 0.2013287629792265 )
( 0.0859716062422421 0.0730574437762465 -0.0008687602233036 0.1970735581031343 0.0633003404881111 0.207367214100501 )
( 0.0872194875483044 0.077831682900125 0.0009005705663911 0.2079070139064269 0.0740772598916291 0.2140097241614374 )
( 0.0923050578063371 0.0848432012604847 0.0022999613601492 0.219942542618526 0.082088062267196 0.2220682576940183 )
( 0.1006517780801751 0.0939619086223761 0.0033320935058729 0.233144203888744 0.0873600085205231 0.230487168922007 )
( 0.1127193170255415 0.1063615337035142 0.0042567556661739 0.2452711259279653 0.0892736391660418 0.2379343601713184 )
( 0.1274194791089045 0.1209957710727234 0.0043793468236189 0.255962683502017 0.0873977458305997 0.2446468304498656 )
( 0.1444939146782312 0.1373592402938985 0.0031179014511501 0.2671745473205589 0.082822962097345 0.2511577548926468 )
( 0.1628141536674503 0.1549822019474499 0.0010171610045995 0.277973593879677 0.0756771854200128 0.2572766592999267 )
( 0.1815917087892522 0.1734672666752316 -0.0017675139015058 0.2887606870598267 0.0662254531803279 0.2615297945202777 )
( 0.2010768913207531 0.1930342262192253 -0.0051688448053172 0.3001944694922278 0.0556417646137634 0.2647588703942747 )
( 0.2195604918465186 0.2124934740818606 -0.0083036897692974 0.3126682139857367 0.0453842175494501 0.2668100408868618 )
( 0.2387435451990315 0.232331544346689 -0.0119540721300401 0.3248149338678581 0.03494093991487 0.2676823278898685 )
( 0.2613616833481256 0.2543462987594692 -0.0168548336692884 0.3362878207225572 0.0234106915522395 0.2682344728860718 )