/*--------------------------------*- C++ -*----------------------------------*\
| =========                 |                                                 |
| \\      /  F ield         | OpenFOAM: The Open Source CFD Toolbox           |
|  \\    /   O peration     | Version:  2112                                  |
|   \\  /    A nd           | Website:  www.openfoam.com                      |
|    \\/     M anipulation  |                                                 |
\*---------------------------------------------------------------------------*/
FoamFile
{
    version     2.0;
    format      ascii;
    arch        "LSB;label=32;scalar=64";
    class       volVectorField;
    location    "0.0065";
    object      U_LES;
}
// * * * * * * * * * * * * * * * * * * * * * * * * * * * * * * * * * * * * * // 
 
dimensions      [0 1 -1 0 0 0 0];
 
internalField   nonuniform List<vector> 
13597
(
( 17.690502812322773 1.9162823061495904 0.1041476735176177 )
( 17.697830309451163 1.962734035997004 0.1023152694243443 )
( 17.724029074030867 2.057029641142149 0.0979833330571245 )
( 17.762267055335805 2.179502470139804 0.0906000717273442 )
( 17.795376036063107 2.282945183862924 0.083979785606953 )
( 17.820135035116017 2.3660596409445063 0.0791683863950102 )
( 17.84644691518422 2.4477521963785382 0.0735857837067823 )
( 17.876967632098967 2.5337012124868576 0.06861514113351 )
( 17.909783853000913 2.6184960686877887 0.0644121302438534 )
( 17.942302906407434 2.7023797109614485 0.0596722015693433 )
( 17.977396091431594 2.793918558526145 0.0559924269303812 )
( 18.01653948550275 2.884877630863146 0.05330684646021 )
( 18.05795897059857 2.9731653526617787 0.0514067541246613 )
( 18.099660655079223 3.065312484491325 0.0511515224100816 )
( 18.1398404580038 3.1593716684577853 0.0523424906118338 )
( 18.182087438279183 3.251498525510655 0.0548821077140607 )
( 18.22821742842572 3.339147019089008 0.0586549294964142 )
( 18.27503845228679 3.4271498282259114 0.0619170375222201 )
( 18.322163401077507 3.5192366388414897 0.0649107284736021 )
( 17.576536216816322 1.959143416870148 0.0976637174651102 )
( 17.56923648521845 2.018893274084908 0.0928262829352453 )
( 17.576057048194542 2.1429141028609435 0.0844355587178882 )
( 17.586345654116247 2.285266723158948 0.0742470936779297 )
( 17.590285924067327 2.393629251033424 0.0669134609875367 )
( 17.590502272675188 2.492240738847348 0.0621718374154572 )
( 17.593120777292565 2.590666871905165 0.0582107639488794 )
( 17.596085956994013 2.692214814935786 0.0555464219566671 )
( 17.60264828515865 2.794372844023738 0.0545304215259963 )
( 17.607879052208506 2.8947584189455178 0.0544095960725309 )
( 17.612170264415354 3.004666697375019 0.0560536650685848 )
( 17.6152904377139 3.120999506945977 0.059793493014358 )
( 17.617051537055065 3.236918553229504 0.0642559350431498 )
( 17.622104554715552 3.3553157344747047 0.0689429427832759 )
( 17.62890119177392 3.471456882051245 0.0748870105180484 )
( 17.636493504308206 3.580857973212467 0.0800689258106435 )
( 17.64468594362037 3.681603483179485 0.0844247479351253 )
( 17.653858961125113 3.7854700258986806 0.088049287195738 )
( 17.668103389851293 3.889131527377006 0.0901118397025826 )
( 17.456025665649193 1.992720164024437 0.0817649833569229 )
( 17.427441713130914 2.063167077203184 0.074824119565791 )
( 17.40665427522364 2.205960035851233 0.0659837217792859 )
( 17.382854043702114 2.3598607889937875 0.0565725304246458 )
( 17.35557375933712 2.4735070756108475 0.0507994874632058 )
( 17.331991272001343 2.5833623868108666 0.0490376817076837 )
( 17.309791441722737 2.695432946536035 0.0499754516286006 )
( 17.280944772578277 2.807193127272552 0.0527791435239505 )
( 17.256087580911384 2.922849088015539 0.0580693450545655 )
( 17.233143615517378 3.0463767744365526 0.0654466993488549 )
( 17.20637041385224 3.1747161937347537 0.073337753173101 )
( 17.180194881181627 3.312098363684808 0.081815227425998 )
( 17.155555876617342 3.453841507945002 0.0896724545209883 )
( 17.13385352794076 3.5895376108543218 0.095835173869711 )
( 17.116737677814832 3.714296757971308 0.10082352199677 )
( 17.102337913032354 3.8259631444161166 0.1032553525188764 )
( 17.086463301150342 3.926969828605524 0.1039173337898785 )
( 17.07163274464661 4.0293428374391 0.103395043186543 )
( 17.06555232275779 4.135634127070837 0.10099190964204 )
( 17.323560693817992 2.014592701790677 0.0653101759490797 )
( 17.270042399280317 2.094705759603336 0.0573101080203246 )
( 17.221751506930193 2.24616193197443 0.0506581948394729 )
( 17.167253316073666 2.4062554972048744 0.0459395386730863 )
( 17.108834256193997 2.5276379890982263 0.0455689752252902 )
( 17.05628583882131 2.6438848355179743 0.0500034353570514 )
( 17.002037021503313 2.766783218399459 0.0576592911243298 )
( 16.94362945723289 2.890749093534139 0.0677007411361815 )
( 16.892972595259955 3.019153692217003 0.0790258141017825 )
( 16.84572454694522 3.1572053677641336 0.0899799393634116 )
( 16.79322676286311 3.3030614038155406 0.0993232584833568 )
( 16.748992488098285 3.455144530454517 0.106786719410145 )
( 16.710496308982595 3.6078565245544487 0.1108685424031629 )
( 16.670670587246526 3.754452722404175 0.1127598604661453 )
( 16.633065020650257 3.881598663509808 0.1120430528974864 )
( 16.598625261695183 3.9916464141267496 0.1087673155058126 )
( 16.565565421773425 4.092296168860691 0.1042215703932815 )
( 16.53086702457745 4.19476798516705 0.0976989276980715 )
( 16.500639137767255 4.308519488001774 0.0884970610513034 )
( 17.183459097916607 2.026346738629928 0.0507229301506918 )
( 17.111099654571046 2.115441970584893 0.0439278143627384 )
( 17.035018037973362 2.275900569907714 0.0419613916324731 )
( 16.949294646853687 2.4369129485781347 0.0453619031766965 )
( 16.864018105615468 2.561326441907333 0.0522645962389804 )
( 16.78437161011138 2.683758073931759 0.0625454219458666 )
( 16.701299859405168 2.81467618979452 0.0759408799788965 )
( 16.6190164098775 2.948319125852056 0.0892800406059868 )
( 16.54520341583687 3.08421941656192 0.1013029877965479 )
( 16.473250242734043 3.2302882354371203 0.1099911588585568 )
( 16.400664359807596 3.3911906641064427 0.1152352911916831 )
( 16.334912783846704 3.5563034436430567 0.1169494872781027 )
( 16.272979788045372 3.717143981369881 0.1144572746319189 )
( 16.21051218650055 3.868832864622184 0.1095305451776278 )
( 16.148597917758376 3.9948105146255983 0.1022263061959281 )
( 16.088375700147285 4.108512499858431 0.0933302059803326 )
( 16.031364050257025 4.217450448786647 0.0833381515004941 )
( 15.975592169981038 4.326866121095016 0.0718233013079785 )
( 15.92085931429734 4.449613807758096 0.0578211661810041 )
( 17.042703389914877 2.02745325244706 0.0385782773431688 )
( 16.949073230558653 2.1247794941652125 0.0358456249214227 )
( 16.842766455497628 2.2958263828068737 0.0403581753288412 )
( 16.73088117220742 2.45686330209322 0.051115582175134 )
( 16.624856326102606 2.5829618575696447 0.0643720434784307 )
( 16.525120411736218 2.710924968084545 0.0791017793905107 )
( 16.423452162011397 2.84409385768266 0.0937110510587885 )
( 16.32000754973464 2.9819527666552523 0.1053566790991809 )
( 16.21773358739083 3.1256165188753258 0.1141097821124264 )
( 16.11837597905908 3.2854138114206624 0.1187934882548755 )
( 16.026332865738237 3.4547924388370546 0.1182487751734382 )
( 15.933928727618962 3.625355999031524 0.1114336577258333 )
( 15.846188661225696 3.792967362994729 0.1025672745147327 )
( 15.762996327969278 3.946289718983867 0.0923669494723059 )
( 15.677254556735395 4.0753177657931055 0.0800977886946551 )
( 15.59756138234727 4.18965669738341 0.0677351512484251 )
( 15.51955949313694 4.300460413498612 0.0549299999964893 )
( 15.441954949175477 4.412896012492291 0.0413357359556117 )
( 15.365894224370962 4.539835676406156 0.0259591128145073 )
( 16.893786979186583 2.021357157138008 0.0305155652971099 )
( 16.779397919020855 2.127492641727029 0.033480651387491 )
( 16.650057361585326 2.303884584210336 0.0452718718265082 )
( 16.517766496621487 2.4625734770997574 0.0605449060794924 )
( 16.394401965610996 2.589703346403899 0.0766392264704336 )
( 16.272162097331655 2.719625943055421 0.0928686711065094 )
( 16.15038161636951 2.857051504645242 0.1053206969846461 )
( 16.02824610012749 3.000204974131603 0.1135790389897052 )
( 15.9028583121906 3.14911982798062 0.1176418999545705 )
( 15.786473950483272 3.315513707958248 0.1167309124651926 )
( 15.671906914512784 3.491419743166772 0.1106668626328206 )
( 15.55285612728483 3.6690655316099257 0.098579974135173 )
( 15.442469706962276 3.837078178155212 0.0849487737711228 )
( 15.336942185891177 3.988220413789664 0.071251162284137 )
( 15.229940857263616 4.1220514088003855 0.0565386884842511 )
( 15.12928633278158 4.235221720067574 0.0429761914843288 )
( 15.032152287085967 4.344664585474111 0.0298964974916321 )
( 14.93370258057656 4.462448869768341 0.0159038168325238 )
( 14.837410436106587 4.593407624694176 0.0008126160831203 )
( 16.746569062368533 2.009889767167085 0.0260632111900852 )
( 16.614185506808685 2.1199250164877457 0.0341841342416991 )
( 16.465929292075387 2.2972197009769824 0.0523777556687099 )
( 16.31554703942529 2.454261577319744 0.0713350735729666 )
( 16.172675652122454 2.583582976953941 0.0880008508087823 )
( 16.031163898328057 2.717428330334368 0.1015021585120189 )
( 15.890167588272094 2.860130585810641 0.1110397782948938 )
( 15.750874432918028 3.0041376987363413 0.1153833657570347 )
( 15.604956592931936 3.1553911178277145 0.1141536064162493 )
( 15.468562067128008 3.328793979404808 0.1079378346988496 )
( 15.329226735033574 3.510338502514605 0.0976333940366206 )
( 15.189534078878111 3.692804099973252 0.0834473091545205 )
( 15.058385263306478 3.862280974309782 0.067265807972093 )
( 14.927484832534098 4.0082369339804 0.0511610168159454 )
( 14.805142462248764 4.135722583569326 0.0357451222751194 )
( 14.685374020458678 4.250003287780754 0.0218673224922198 )
( 14.568518959868689 4.364126611352614 0.0090185280500335 )
( 14.452518104354022 4.488703978528108 -0.004145260187841 )
( 14.338864373519248 4.625393417481383 -0.0176042324671363 )
( 16.60218755786745 1.988314493519397 0.0242539448830082 )
( 16.451052881755096 2.098522853414703 0.0363580286211575 )
( 16.28498608026651 2.277126167096314 0.058582799399383 )
( 16.12177792508926 2.433467430349101 0.0796929749425432 )
( 15.961538298977622 2.5677408106457964 0.0965163049021115 )
( 15.806070859789918 2.702136316177785 0.1062437814044695 )
( 15.650779160171805 2.842994398831077 0.1117311860472326 )
( 15.49553180947982 2.9935848227055044 0.112655148699052 )
( 15.33326839270146 3.151283361693256 0.1072577248380239 )
( 15.167017230863513 3.3256708110956184 0.0971415986131372 )
( 15.004794986942391 3.5106376047262025 0.0828917405092232 )
( 14.848736984960787 3.693043085521461 0.0673247079618646 )
( 14.693466530546091 3.8636047518542913 0.0503398085672991 )
( 14.542552947145891 4.009587725941135 0.0334543523523207 )
( 14.405876541535727 4.133227049213898 0.0186341167797653 )
( 14.268299289340629 4.25089912789597 0.0050128447030354 )
( 14.13203353935379 4.368421698631227 -0.0068428492289836 )
( 13.99825666622922 4.496296075148886 -0.0180158459042561 )
( 13.865203935891788 4.638946727725803 -0.0290505433335525 )
( 16.457711183943953 1.9648079502273663 0.0250853634972708 )
( 16.29182005639396 2.080784301971362 0.0411624681346694 )
( 16.1119176317452 2.258321083190854 0.0653400084789537 )
( 15.937377061219223 2.408057048677511 0.0858623465192224 )
( 15.766550629992722 2.544786664441141 0.10000187246333 )
( 15.598062498193976 2.676087823683005 0.1073683716947793 )
( 15.423721207301316 2.812084530178236 0.1092678608198625 )
( 15.245405680430371 2.965348779217197 0.1068566467773211 )
( 15.068147262429983 3.125347065160328 0.0990249150343612 )
( 14.883652546562974 3.3010334029167963 0.0857548084208238 )
( 14.703307226940412 3.4924199435572425 0.0689426344681333 )
( 14.529563338639338 3.678993633366961 0.0519295261784721 )
( 14.355471020409148 3.846573470027644 0.0350665105018357 )
( 14.190717926718165 3.9931724338905816 0.0189183948997801 )
( 14.034734800779676 4.118713944246076 0.0056114319136266 )
( 13.877080520113475 4.236319148998093 -0.0060737384293235 )
( 13.718936294871735 4.355267155707753 -0.0164082035848605 )
( 13.56573813139194 4.4856327695515406 -0.026261007441318 )
( 13.415698311323478 4.63516153970033 -0.0362431275099174 )
( 16.323661423755215 1.9405235654933293 0.0270116359691374 )
( 16.150191626186793 2.060921065843161 0.046133813906322 )
( 15.952562155835777 2.235358235870757 0.0717095261702089 )
( 15.768180094780222 2.3767735881963628 0.0896242966726316 )
( 15.585622010294149 2.50996847522096 0.1003458942521612 )
( 15.400371971598425 2.6406021485421203 0.1053911069612021 )
( 15.209923853608402 2.772654300910174 0.1049693849460189 )
( 15.01569697030326 2.919996657706294 0.1002321281108157 )
( 14.820513207480593 3.0849832760229514 0.0897189762273756 )
( 14.62281763813974 3.264651081676782 0.0740401230529846 )
( 14.424858951365298 3.457198318731701 0.0564322465610373 )
( 14.228330019443971 3.651006464695794 0.0388869576894746 )
( 14.04210242131132 3.816955449265451 0.0230367908039731 )
( 13.86352996677068 3.963651976452808 0.0085615734049915 )
( 13.684371730156268 4.092651629160828 -0.0036252382390418 )
( 13.50368148657502 4.21016240719327 -0.0140558053992779 )
( 13.326297484484511 4.331910510446674 -0.0238033638072927 )
( 13.15848001751728 4.467208915010306 -0.0332706354174922 )
( 12.992058557366413 4.625319280656068 -0.0423568716569029 )
( 16.194849144295762 1.9102559423095775 0.0293131685679837 )
( 16.01217634783862 2.032537933726162 0.0500770890842203 )
( 15.80162127436283 2.205606952570439 0.0754341878860538 )
( 15.60822004879261 2.338897444693472 0.0906913038097795 )
( 15.413507686605564 2.4647199533682707 0.0995177393243895 )
( 15.21257573234918 2.5948126886127016 0.1021886126471912 )
( 15.013149853455674 2.7310925850721035 0.0996831907562336 )
( 14.805407635540629 2.87965220410797 0.0927057399635862 )
( 14.593725878980871 3.0461800856607053 0.0795596544994982 )
( 14.379883000122684 3.2253096541489605 0.0631045571985427 )
( 14.164362235018666 3.4156103003447686 0.0456121849361561 )
( 13.94878627342766 3.606474835971535 0.0289229310179616 )
( 13.743351590797293 3.776766455109362 0.0139374192524352 )
( 13.545055493735802 3.930712431696208 4.014954488477741e-05 )
( 13.34417642640934 4.06123271097184 -0.0116666692777472 )
( 13.147466960164326 4.177033429184244 -0.021804118981076 )
( 12.958349161587938 4.301578133529143 -0.0310616631069851 )
( 12.77660286595271 4.447863377387702 -0.0389896066335777 )
( 12.594747573878973 4.617239896273556 -0.0451096738815651 )
( 16.069129414883307 1.8713101654925783 0.0305228735005853 )
( 15.878043450553848 1.994740763329295 0.0524675167508051 )
( 15.66389365463796 2.1658588435612067 0.0768988547252913 )
( 15.460376021130436 2.297782055849199 0.0895935216136289 )
( 15.256068498493692 2.4231807470042264 0.0968495564343341 )
( 15.044496420388608 2.5524880930745693 0.0984458100870088 )
( 14.831811676580276 2.688885069480007 0.0939950450663346 )
( 14.607139255216474 2.8351155495235867 0.0843295871600103 )
( 14.379317327520493 2.9975506191219985 0.0697725594840681 )
( 14.15256134218233 3.179880083911042 0.0532609731894331 )
( 13.918591092215914 3.376678986659755 0.0365165298232566 )
( 13.686198044691348 3.564674602207026 0.0203550376686725 )
( 13.457858562194518 3.736142784251553 0.0054540180401474 )
( 13.234129927815893 3.891717506679658 -0.0081459269359425 )
( 13.02035773979444 4.017994763621541 -0.0190758220699299 )
( 12.81685901735788 4.1365647196308695 -0.027732685645751 )
( 12.615328558678533 4.2695133948721375 -0.0351927694847605 )
( 12.415051921418222 4.424972543570501 -0.0404905679009007 )
( 12.210310837535935 4.608918576260457 -0.0427821025370635 )
( 15.952923300303205 1.8242309205481912 0.0316187952859618 )
( 15.760158172205738 1.94843516937725 0.0538214480727947 )
( 15.537578736736013 2.118467604898956 0.0773282347354089 )
( 15.325003226980566 2.250155885612004 0.0877320289355776 )
( 15.109284749414382 2.375722619207442 0.0938818711853943 )
( 14.89035385569605 2.5007096849125787 0.0943830227987625 )
( 14.665077868863044 2.634125553923738 0.0881439312210717 )
( 14.431653415831464 2.779069907547119 0.076581396448532 )
( 14.187265108578789 2.9394836906577826 0.0614049963358325 )
( 13.940797424952372 3.124245357044176 0.0448669544362807 )
( 13.687873705250915 3.3250836295173074 0.0280346467965758 )
( 13.433781873828382 3.51973687064807 0.0123413459918498 )
( 13.187624929673328 3.695183245042675 -0.0019512608771705 )
( 12.950057423133917 3.843776789879968 -0.0145829721862433 )
( 12.724123241606268 3.968533518007643 -0.0241087436705712 )
( 12.504692819655483 4.09733200832715 -0.0309491546710529 )
( 12.287245034133209 4.244887136822715 -0.0361109994537955 )
( 12.06246490924275 4.405019005004327 -0.0384360052368273 )
( 11.825648336014076 4.596037718393365 -0.0382483628189024 )
( 15.849225896442192 1.7762662094135178 0.0331283027723154 )
( 15.65049691891249 1.902135382988584 0.0553486484159086 )
( 15.410159704918383 2.073465617722132 0.0773972431926289 )
( 15.1894074840247 2.197906144075778 0.0864380268406206 )
( 14.968352327961409 2.3188733314309977 0.0916700579795338 )
( 14.743820442859796 2.4414012799590203 0.0900983777383808 )
( 14.50674312510858 2.5718166989364524 0.0815899768930049 )
( 14.259527215940794 2.718941513832452 0.0690013385898744 )
( 14.003635384001647 2.8789312922437147 0.0546989899659601 )
( 13.740040787487928 3.0610108551549997 0.0387435042147012 )
( 13.465419749060636 3.2650826944209803 0.021156581595525 )
( 13.188966387676851 3.4628873188819127 0.0053838355858972 )
( 12.924855824456374 3.642906129222013 -0.0081028413846297 )
( 12.678542683098772 3.79028970881053 -0.0193161240902586 )
( 12.442507420404274 3.9179148736167937 -0.0269407889828981 )
( 12.206186533438515 4.055074742340856 -0.0320193087446008 )
( 11.962911118473476 4.211178012862231 -0.0347843411888248 )
( 11.709055538983655 4.385102016247347 -0.0352732260408575 )
( 11.461082877003555 4.598815187419002 -0.0356176162710379 )
( 15.753784874393052 1.7300266792733954 0.0335384504325092 )
( 15.54816576594036 1.8555326205568248 0.0551578648812856 )
( 15.296756374789345 2.024087121058645 0.0757289494007509 )
( 15.067070089727276 2.139601969410226 0.0845046203268688 )
( 14.840193526311054 2.2523550248511293 0.0882581050556199 )
( 14.607693937173083 2.3795774991036773 0.0846873320516722 )
( 14.360340215069854 2.5061201892862504 0.0751792650694123 )
( 14.095873533565022 2.647222459811532 0.0625087250863378 )
( 13.825588994975144 2.812857739837076 0.0483330281187256 )
( 13.545876579667148 2.9939089973608994 0.0321724919279898 )
( 13.246395347703327 3.2041452472449747 0.0149450662901994 )
( 12.94731066861852 3.408491694019404 -0.0008786412298201 )
( 12.674383811979094 3.5831760236112093 -0.0133323503490258 )
( 12.423673390932716 3.7303625936796823 -0.0217356701184878 )
( 12.17531436409937 3.865797540704942 -0.0276854485974302 )
( 11.917931936144676 4.0103819409518735 -0.0315218785309536 )
( 11.645188124981589 4.173639121130988 -0.0320656991494109 )
( 11.370259345929274 4.370277086826678 -0.0333804376760784 )
( 11.142495411431987 4.632858251762978 -0.0353095652666023 )
( 15.66684503411458 1.6832671350099797 0.034344793728657 )
( 15.44933066071817 1.8049556790773127 0.0549589510528596 )
( 15.192686410297537 1.9716346323990144 0.0743385286746505 )
( 14.961419831487108 2.0819774102134194 0.0822731621426582 )
( 14.726433280902777 2.1905266681433107 0.084394204492287 )
( 14.480087109727032 2.3157172652167 0.0795529289868339 )
( 14.219919969227735 2.4360298672028264 0.0699387049574088 )
( 13.949393610829144 2.5750543561636854 0.0572519784799819 )
( 13.662929687529 2.7445270388088576 0.0419161884590194 )
( 13.3599044041656 2.922386689518055 0.0256852333969371 )
( 13.048891060002656 3.1293112464301567 0.0098711241556883 )
( 12.735093877334013 3.348303822619128 -0.0051189068757702 )
( 12.450919032597454 3.5243837293838163 -0.0154893041650017 )
( 12.186837645689538 3.66840694383944 -0.0218184370135783 )
( 11.91607866584068 3.811710595077068 -0.0273894481690777 )
( 11.62705376388262 3.96146532529246 -0.0302256911533809 )
( 11.334256153770683 4.140982412347954 -0.0313781528579256 )
( 11.068394349546177 4.374115545772537 -0.0345169509776116 )
( 10.877187373159634 4.691759362840895 -0.0346354794945498 )
( 15.582913828533314 1.634336466148911 0.0356415256028422 )
( 15.358604229489302 1.75188924684061 0.0555359471421967 )
( 15.095920009307012 1.913270210185293 0.0734802063310754 )
( 14.864134729481494 2.0191450446568155 0.0796913394848596 )
( 14.62305602233784 2.129071940037538 0.0804300045921022 )
( 14.364354043558318 2.250524377602303 0.0745501660041429 )
( 14.094338529728905 2.3610014847090293 0.0647196832498473 )
( 13.81275696818414 2.5026816408179067 0.051980661856313 )
( 13.50836101663096 2.676224473442147 0.0363186385918369 )
( 13.188179658688693 2.857457977855092 0.0204327288292552 )
( 12.85828749022527 3.0582518686714777 0.0057633328612144 )
( 12.530753425382692 3.2682288604508773 -0.0070998352115654 )
( 12.235450205637964 3.4505087306320013 -0.0158205362526479 )
( 11.950010710550965 3.6043063215122215 -0.0218164382858328 )
( 11.65331799102448 3.746695093564695 -0.0264074617245214 )
( 11.343913527603847 3.904777066860024 -0.0284650523940686 )
( 11.043692078059372 4.110685264465386 -0.0315537929526187 )
( 10.808023737420308 4.396106366876071 -0.035032745063249 )
( 10.6199705904545 4.755435919074238 -0.0335630835496986 )
( 15.505277873010844 1.5822409062706866 0.0358897856297393 )
( 15.277796319886086 1.6950441977873896 0.0547782654756967 )
( 15.005151959944778 1.8475211297709195 0.0717702271209883 )
( 14.772787223074678 1.9527944260504448 0.0768266778647768 )
( 14.52463079471876 2.0600335565045227 0.0759340300468059 )
( 14.25253564656482 2.1797462515045245 0.0695249118641205 )
( 13.98258961745272 2.290837335693777 0.059761259594178 )
( 13.686939157017486 2.425109570664047 0.0468720263497944 )
( 13.361441227162874 2.5983706727484357 0.0312374500773191 )
( 13.022705752028289 2.787355844725044 0.0154734369152281 )
( 12.669702258900248 2.992063190395959 0.0015480033902608 )
( 12.336135492410042 3.1922867338157253 -0.0093805522098197 )
( 12.022932358781397 3.370271757116699 -0.0175985368609866 )
( 11.711944178550926 3.531624296047264 -0.0224946133780664 )
( 11.400494294113676 3.682755769825812 -0.0250295160587624 )
( 11.083346444726187 3.862742570434049 -0.0268646106328581 )
( 10.787858129775405 4.105620757027413 -0.0308997089661055 )
( 10.568525254471972 4.434473748269328 -0.0340152291209375 )
( 10.281663460757953 4.771905578158036 -0.0337600585344812 )
( 15.4403073932674 1.5281636721379734 0.0358311557170425 )
( 15.202074044360703 1.6329748719738426 0.052910119430793 )
( 14.9213043251669 1.7792121878108464 0.0692775778348827 )
( 14.684660778193049 1.883439494624293 0.0737707087855892 )
( 14.430591281933964 1.989777057852648 0.0719972495545856 )
( 14.149576680553984 2.111258226475125 0.065045567766139 )
( 13.868266625814927 2.22216015088054 0.0547971002143876 )
( 13.56513448417206 2.348318657716361 0.0424373966895765 )
( 13.22842880102165 2.514814678195582 0.027149824290516 )
( 12.868907576987128 2.701491805374922 0.0115448035957874 )
( 12.49951303313406 2.9144429352822745 -0.0021504079362773 )
( 12.155378531245065 3.121156423650292 -0.01262269177739 )
( 11.818799085368644 3.2949825777098134 -0.0199937371347767 )
( 11.488013514714524 3.453269069948228 -0.0237058247503813 )
( 11.157868446352529 3.6291238248628352 -0.0242346570128113 )
( 10.833992120278248 3.8355795140529656 -0.0263153294026365 )
( 10.556731635005493 4.114681086438843 -0.031542169609902 )
( 10.292720190929936 4.467909400612474 -0.0317457853449492 )
( 9.81533917721214 4.714323034329049 -0.033017741686171 )
( 15.37618118780852 1.4685566556110132 0.0350481774810668 )
( 15.135477618953772 1.57188243560687 0.0502604623715275 )
( 14.851895709872954 1.711137723128756 0.0651907245163481 )
( 14.604695438643354 1.806946665150662 0.0690055986873396 )
( 14.34439269910762 1.914815456975972 0.0674612641632999 )
( 14.059039314925489 2.039913406951649 0.0603249966821982 )
( 13.76401057664328 2.1463897160466785 0.0498397019369338 )
( 13.454006844944562 2.266913289453976 0.0379726154249316 )
( 13.099059656638024 2.433167575689609 0.0228986467674173 )
( 12.722696770163523 2.619896919224808 0.0082075799237675 )
( 12.33980757967776 2.831776755049817 -0.0047565447557987 )
( 11.971292362343378 3.042556306814469 -0.0149415864583739 )
( 11.623760278724022 3.2238593050588227 -0.0204163678392686 )
( 11.286686663140603 3.3836433297065347 -0.0231834265071001 )
( 10.936438576777542 3.5772631858703665 -0.0246039286157406 )
( 10.600188382720132 3.8155999892878647 -0.0283023443402067 )
( 10.328313690217689 4.126067645103662 -0.031468905071198 )
( 9.97264349756515 4.473394334759946 -0.0297874456139816 )
( 9.194508617884614 4.553701382118008 -0.0318269593626775 )
( 15.315186340770286 1.4068242017146957 0.0325158329696632 )
( 15.07415640073294 1.5110722356029516 0.0473084602630564 )
( 14.78775025084476 1.647343530021108 0.0612367656803125 )
( 14.53604815467828 1.7391544590720378 0.0645236629031636 )
( 14.265527587330164 1.843537338624267 0.063309799933658 )
( 13.965879480946572 1.958002509171339 0.0561041638133961 )
( 13.661564192455751 2.0629998954048 0.0449477549059522 )
( 13.345674336086963 2.18126649922441 0.032594373675555 )
( 12.966127740962946 2.3480386548212997 0.0182329504320376 )
( 12.57387727174546 2.542015205673391 0.0050255056742984 )
( 12.188213998049417 2.749405595526306 -0.0067843362318898 )
( 11.809523700266364 2.9617215978500417 -0.0159080044416144 )
( 11.448805256512811 3.153071582714428 -0.0200037292933074 )
( 11.086497814244384 3.320103591828218 -0.0215099481156074 )
( 10.726973838890038 3.522444533590302 -0.0235407956890697 )
( 10.390491299544912 3.7923568386258695 -0.0278266076227221 )
( 10.070744669996252 4.131461151890497 -0.0300042764656066 )
( 9.633408584490567 4.453925911560427 -0.030872296996208 )
( 8.364712871941261 4.243557487815026 -0.0297566809115914 )
( 15.261697994370708 1.350990604578015 0.0301884524396346 )
( 15.014867694422776 1.4510857848317262 0.0454118837606517 )
( 14.725197877133803 1.5830363279000408 0.0584857466591629 )
( 14.473130611606765 1.674859095728172 0.0618035232204815 )
( 14.192638799610757 1.7728507471468036 0.0599112247836359 )
( 13.88442912472066 1.876171186500896 0.0518148796354688 )
( 13.571040035560133 1.9858077556317604 0.0407164709510092 )
( 13.239066078953648 2.110812377096507 0.0287383384264285 )
( 12.840492803669072 2.2700628265542577 0.0151610510574313 )
( 12.428491955071888 2.4655302797368583 0.0026469167932505 )
( 12.036644009850985 2.668199291759677 -0.0081148940775419 )
( 11.656270547177485 2.8679623733120434 -0.0164240247744782 )
( 11.278818743792446 3.0594334645604087 -0.0194288681535628 )
( 10.89288662397201 3.243669586255804 -0.021052400138883 )
( 10.521101138329486 3.466602174140663 -0.0220828080586251 )
( 10.177299157605477 3.763564238986412 -0.0235483765828033 )
( 9.782858781681131 4.115547616245924 -0.0262119492227766 )
( 9.112400261843066 4.321921491737027 -0.0271528377477968 )
( 7.531302263572069 3.8952757722344273 -0.0237314327676653 )
( 15.214306631673187 1.2928285345882262 0.0285026402434045 )
( 14.963175063955362 1.3916612671052313 0.0436073186924809 )
( 14.66544213161122 1.5195269319974265 0.0559618238929421 )
( 14.409492185545796 1.6053934000167858 0.0584962250545608 )
( 14.124205412753588 1.702547226293977 0.0553807754116978 )
( 13.81644296527258 1.8080132962827025 0.0473497221660738 )
( 13.499104678858638 1.9171478470769605 0.0377662624943498 )
( 13.144450652008054 2.039359210225638 0.0263165043739852 )
( 12.734516340055864 2.1961552564747566 0.0130871901484689 )
( 12.314595466141164 2.3891976430590773 0.0015488473250325 )
( 11.904572258748106 2.589666510020712 -0.0086783855420066 )
( 11.499428593831285 2.7801938962745134 -0.016880778322572 )
( 11.10198957194786 2.96506269271108 -0.0206393542013383 )
( 10.70362965547996 3.1608059775317137 -0.0231440134772724 )
( 10.32394747272027 3.4119566257896627 -0.0237463551788239 )
( 9.954737825891677 3.744457717279492 -0.0242278888782194 )
( 9.492093332842932 4.085183452483556 -0.0242585161303287 )
( 8.511577491119 4.104049729667269 -0.0212434185388436 )
( 6.794066431513261 3.5628372146141456 -0.0197101330488662 )
( 15.17232692088988 1.231774711138064 0.0268179561397201 )
( 14.921231464735811 1.330226133517856 0.0407669027346183 )
( 14.615079705394011 1.4572014643231408 0.0525807514284461 )
( 14.35051538152159 1.53741576522717 0.0545116406334479 )
( 14.057906142668031 1.6297481904171167 0.0507586942733724 )
( 13.746105778767904 1.7350392940680055 0.0437395769183825 )
( 13.42162601036082 1.8329520343077623 0.0345829338371595 )
( 13.05550943377288 1.952872536148956 0.0236247692571526 )
( 12.646590465288428 2.119621687540437 0.0112853041820404 )
( 12.2186977959776 2.309605344893172 -0.0001261639307849 )
( 11.785488524981362 2.5116959977323448 -0.0103183613617516 )
( 11.354766518437604 2.695633299573568 -0.0178344275728311 )
( 10.93894247666256 2.875961343117585 -0.0231800899926544 )
( 10.51853023700544 3.0867915087078344 -0.0261159090906799 )
( 10.125956733833902 3.3567698710725677 -0.0251725499338259 )
( 9.706057216933974 3.70687274423602 -0.0261123027087852 )
( 9.149879662935817 4.007697584850058 -0.0260805982734205 )
( 7.984090101671727 3.881007305555128 -0.0198770927085421 )
( 6.093293395391729 3.2133833509891625 -0.0176430227881861 )
( 15.135733624290037 1.1784882190771138 0.0250275427650009 )
( 14.881880484019172 1.271348916936906 0.0380625884345358 )
( 14.570112162836304 1.3922019570032578 0.048948878479623 )
( 14.299406708697614 1.4710703189252707 0.050746562461723 )
( 13.999287692242053 1.556448061420123 0.0472033735710331 )
( 13.683084611361028 1.6529295560435946 0.0398657242515114 )
( 13.345057797688698 1.7455485829093256 0.0306174721135721 )
( 12.971609466872096 1.872694424033912 0.0208629627829974 )