/*--------------------------------*- C++ -*----------------------------------*\
| =========                 |                                                 |
| \\      /  F ield         | OpenFOAM: The Open Source CFD Toolbox           |
|  \\    /   O peration     | Version:  2112                                  |
|   \\  /    A nd           | Website:  www.openfoam.com                      |
|    \\/     M anipulation  |                                                 |
\*---------------------------------------------------------------------------*/
FoamFile
{
    version     2.0;
    format      ascii;
    arch        "LSB;label=32;scalar=64";
    class       volScalarField;
    location    "0.0007";
    object      k_LES;
}
// * * * * * * * * * * * * * * * * * * * * * * * * * * * * * * * * * * * * * // 
 
dimensions      [0 2 -2 0 0 0 0];
 
internalField   nonuniform List<scalar> 
13597
(
0.2666253417483066
0.2631570354384118
0.2515083352861045
0.2361449368513566
0.2235440282617831
0.2130876062778125
0.2026691298473911
0.1914235856405684
0.1811508367882689
0.1719181099255269
0.1626475247783991
0.1551983346441765
0.1491593855079235
0.1438986475830213
0.1404192574959145
0.1384592388512067
0.1370545256632143
0.136105485272161
0.1360483513624971
0.2913445182397658
0.2862468955902633
0.267753477585798
0.2478125766514453
0.2319432809682021
0.2167850922224863
0.2021564832170102
0.1884210510022184
0.1764027322296103
0.166096406853246
0.1572788192917099
0.1504722040499511
0.1463029854418214
0.1443176936252504
0.14429095551367
0.1460908395764527
0.1485351281416089
0.1511377414189476
0.1539059818522737
0.304478618406669
0.2950133351498104
0.2693183903686397
0.2433387285044364
0.2240676112183938
0.2066547932200296
0.1907732742761993
0.1779395986116047
0.1681877207360165
0.1608318796733441
0.1565448877679877
0.1555533479566151
0.1571831085298457
0.1600870598008089
0.1635225376182247
0.1668927395165087
0.1696885408697574
0.1717413703050341
0.1733153922534014
0.3044488981346949
0.2883441209761609
0.2570740471186382
0.2268310458071888
0.2052654234624565
0.1880684006131164
0.1744462687498199
0.1653353900530199
0.1599110067827152
0.1573801099013884
0.1573045606486562
0.1591030336620599
0.161563918517596
0.1641776136690312
0.1661913087585585
0.1672503665175456
0.1673561093505673
0.1669965151374519
0.1664507658853354
0.2938395062731126
0.2698242125717926
0.2346183959556956
0.2042186952457072
0.1840301806538327
0.1703557331336707
0.1611416586381409
0.156049906226403
0.1542105054496587
0.1543677083280105
0.155840370840814
0.1575260664382012
0.1586869873100058
0.1596960014181686
0.1597483925337554
0.1593509679592857
0.1584474002281768
0.1574211585384813
0.1562938739151058
0.2747997628779831
0.2447750732086132
0.2078597291721636
0.1818430523324244
0.1666431286676965
0.1578404365941957
0.1534096896893425
0.1516579243205758
0.151613440297476
0.1528336725891017
0.1547743475737378
0.1557691240808022
0.1559586240184512
0.1560036494837135
0.1554907128084899
0.1546765390307316
0.1538176619286309
0.1526667902611242
0.1512232674227958
0.2493489275273891
0.2173553207929952
0.1846764525935602
0.1652906825297942
0.1560533688189151
0.1516296123343688
0.1502037947931226
0.1508421019886538
0.1524389436558697
0.1542929099313011
0.155557953799474
0.1561017776322544
0.1563811354488469
0.1562685415702925
0.1555929362135931
0.154684599536426
0.1534066129296945
0.1517499826268408
0.149663568748729
0.2242537551348029
0.1936287645311753
0.167968458344882
0.1555282000396914
0.1509607771995754
0.1507184623624253
0.1520401641965537
0.1540828028689736
0.1567852677768263
0.1586354226212179
0.1593083520286483
0.1597103438979256
0.1596995858025264
0.1591909760340165
0.1580506193466308
0.1567257677550957
0.1549208196388641
0.1527351227919796
0.1501108212167372
0.2015057255049276
0.174599880795421
0.1566779160746446
0.1511343270358149
0.1510535001997808
0.1538605232151878
0.157330415262994
0.1607064234858238
0.1635628526059489
0.1654126151817688
0.1658936344860171
0.1653626866771669
0.1642518636118078
0.1629545773213956
0.1612752694998398
0.1594215648040078
0.1572952067495876
0.1548175924216877
0.1519717431613483
0.1820180864596894
0.1608216874049794
0.1509616052934364
0.1516866042846275
0.1556051841272323
0.1604139027611919
0.165302066081841
0.1694230550722042
0.1719377114040514
0.173122719087691
0.1725595873969424
0.1706885617652884
0.1686441406539969
0.1665545805192996
0.1644639135999565
0.1623850474662667
0.1602208283377527
0.1578389992343678
0.1552896742543177
0.1674380579017233
0.1533728741563161
0.1508306320381203
0.1557732160729351
0.1619847025346128
0.1686380376183845
0.1748569870327044
0.1787942609744898
0.1801226337954478
0.1802620166077316
0.178373101009367
0.1754111641652796
0.1727460577871254
0.1700256153852062
0.1677400834286217
0.1657643278079029
0.1639159958986007
0.1620159731426741
0.1601656096782299
0.1575457420997357
0.1504622560548346
0.1545491301192151
0.1626275550743094
0.1707301639799596
0.1783722054316266
0.1840140370685342
0.1869429133218975
0.1872149535431721
0.186185194730905
0.1833406695242646
0.1798460166645553
0.176469588447592
0.1733758805697326
0.171243418268542
0.1697540086022942
0.1684436897930173
0.1670391417631412
0.1660378639673484
0.1526170319605597
0.1514759054085478
0.1604237200590923
0.1710018892881873
0.1804556596389724
0.1879647528147634
0.1925527750513543
0.1944805496653931
0.1942126295759748
0.1915136442695455
0.1874105164439171
0.1834499539083284
0.1797739145402774
0.1769418893491935
0.1753360459542093
0.1742302389266069
0.1736276535184161
0.1732424203106688
0.1728011433979015
0.1517109395026858
0.1551590264619625
0.1675596483638378
0.1797655963789802
0.1896855802349425
0.1961857350126764
0.2000111683917381
0.2011012494746729
0.1998520363189238
0.1961056451058241
0.1910278712764722
0.1866727332504812
0.183081849666996
0.1808421505081455
0.1797884719312848
0.1793004437553172
0.1795374891046718
0.1802491546355414
0.1806375004535881
0.1535175999407346
0.160677623515676
0.1765416515514365
0.1892088231516039
0.198925147125598
0.2045453891135116
0.2069099477192703
0.2066906880869186
0.2043228030244787
0.2000966063152599
0.194490291349684
0.1899286072262565
0.186774342488649
0.1850829440964422
0.1848092754599539
0.1853835791923674
0.1864467079723874
0.1879274953886654
0.1908899462422685
0.1572087545789336
0.1670190349032723
0.1849198342902557
0.197760299591001
0.207228146469604
0.2122190988907518
0.2137205846485569
0.2123204173482128
0.2082334232782837
0.2033155934855331
0.197750140753749
0.1932523567211247
0.1907401153993484
0.1898207676308501
0.1903165704270748
0.1917240885881369
0.1938328828010426
0.197444191957544
0.2057516392702058
0.1616566385314749
0.1740265635422304
0.1930258599684532
0.2053973496307207
0.2137393142055917
0.2180870770527958
0.2192347966172849
0.2172486367758347
0.2118212998487
0.206437056740252
0.2010839822770078
0.1966027495966568
0.1947027285666208
0.1947659777130499
0.1960726593466623
0.1985638624931253
0.2026381872873405
0.2106184520472969
0.224640463915761
0.1671623294238294
0.1812152840106098
0.2010224242220951
0.2128816676624215
0.219929906182989
0.2233957956213558
0.2237583605591608
0.220624820870261
0.2150564186879148
0.209501047913782
0.2041720568774803
0.2002071054490034
0.199010212797366
0.1998922118911193
0.2024346970953689
0.2064032340893665
0.2139775403278378
0.2276981648500414
0.2419329848309888
0.1732544741069972
0.1878483106379408
0.2082947909207753
0.2196579339025626
0.2260902147341497
0.2284936427365056
0.2272226760274059
0.2232108578545785
0.2178972185222697
0.2121732410408469
0.2069751580846422
0.2038493420246191
0.2035644649193958
0.2056501907117727
0.2094517957784611
0.2157382803039089
0.2282107875630082
0.2471772621237733
0.2549754522146989
0.1789295307019865
0.19459233805206
0.2153034019104422
0.2255673064947108
0.2310110459608922
0.2323277456482256
0.2305027865279139
0.2261120770783285
0.2205547457353548
0.2148806811322657
0.2098034196473975
0.2076526282176868
0.2084830905426792
0.2117230155088444
0.217319112175355
0.2271075114112813
0.2452301215548577
0.2659255284047439
0.2620197350439008
0.1848266949170028
0.2008482378892862
0.2210219267612907
0.2306485975076899
0.2349806158180702
0.2351558425443084
0.2336366100355477
0.2292249640556323
0.2229444572104296
0.2172742949826824
0.2130955624680955
0.2121440082167948
0.213686776287279
0.2176292702402272
0.2257985817724108
0.240827899039348
0.2641456430982196
0.2825550222281349
0.2565174436606454
0.190142199620906
0.2059566667336382
0.2257612325836451
0.234561498199401
0.2381956051136188
0.2381207591688096
0.2363565253475134
0.2316280126968408
0.2249838044158043
0.2195270183872963
0.2163366090169538
0.2160010416552952
0.2182173367077501
0.223967858415488
0.2351871824723979
0.2560253165899809
0.2830830191850584
0.296182296111201
0.2355158567860753
0.194436898775256
0.2104681333113396
0.2299434589084705
0.2377748506326575
0.2411266735021301
0.2409486141155761
0.2388600085849886
0.2335170620219085
0.22684319062419
0.2218121781235395
0.2193536105258672
0.2200122732105041
0.2231371432612573
0.2311246999380943
0.2469436572388028
0.2728542925305449
0.3013707034435061
0.2976744736337041
0.213392152449591
0.1985706482167812
0.2147821634026924
0.2342342043375452
0.241823571819382
0.2441397474015891
0.2429055284838606
0.2405106871861518
0.2352494430677688
0.2288102998524378
0.2240908020243605
0.2221703218518157
0.2242188845629963
0.2289200378413446
0.2392645035281947
0.2600620524992789
0.2904351932399614
0.317978011221461
0.2902210308278177
0.1933393550483637
0.2025351020597089
0.2183524383985283
0.23797516826644
0.2456125223363549
0.2466173788737361
0.2449420064209946
0.2422942265057614
0.2366301852146266
0.2304942139418239
0.2263854113298623
0.2249326699978936
0.2279031092095607
0.234420878653512
0.2483437712991211
0.2731048541480546
0.3066194008435813
0.3290424906182056
0.2813212017520894
0.1719026500298417
0.2063234912011463
0.2216182918912327
0.2411270411202991
0.2480970646337723
0.2486223040118899
0.247624129184092
0.2443053985160288
0.2376391312398505
0.23191361602486
0.2286209681315828
0.2278864370510982
0.2315809073048914
0.2399378380316904
0.2574078405264565
0.2859211674842957
0.3218462010784885
0.3304571310382914
0.2662981932369629
0.1565345833109225
0.2097309532372283
0.2247907447659359
0.2438265049668272
0.2500777189752695
0.2506678295352636
0.2500112794811325
0.2455918547987876
0.2387500652353815
0.2336311475467614
0.2306388918844013
0.2307412698673612
0.2351338887141139
0.2453368093990618
0.2658368405355072
0.2990935595418124
0.33567837237093
0.3299034282090682
0.2504628391751957
0.1438353927232168
0.2128711484871381
0.2277839402375807
0.246074977041281
0.252449712500589
0.2532956592190515
0.2520190782982259
0.2469685045873478
0.2404932836086302
0.2355404146943939
0.2326655965467909
0.2338118461472291
0.2387580284358005
0.2504990939037596
0.2743902769545533
0.313162894896295
0.3486929957086669
0.3333194875491059
0.239937046301191
0.1332527867869425
0.2159227002099185
0.230848646535848
0.2485267278718266
0.2549189430731624
0.2556512843750008
0.2535525305484894
0.2482389609299801
0.2419551631288665
0.2370472509016211
0.234790817842173
0.236923970354412
0.2427865045974616
0.2572642452576773
0.2837377295377149
0.3252624348845624
0.3579748562042324
0.3327272143200603
0.2312473419388104
0.127150778690699
0.2184985231541303
0.2330791859787499
0.2506125559158256
0.2567729959839589
0.2573033114342172
0.2543255628999114
0.2489379276114757
0.2427349554257499
0.2379810944442112
0.2363319105800809
0.2392187192015416
0.2465037429110346
0.2632203813608325
0.2927572353265079
0.3356345005240442
0.3559445265363569
0.3209353372630499
0.2229886557833108
0.1237480020494815
0.2210910455312439
0.2352417685336914
0.2527836007007926
0.2585612405966103
0.2584182756111507
0.2546884963766239
0.2494648129970947
0.2434195118520472
0.2391825301240904
0.2378972238085281
0.2412802288663547
0.2501955571418735
0.2677435605393694
0.300805834632493
0.3452756595739373
0.3531714326938884
0.3086327565621932
0.2151576515569318
0.1214146277165451
0.223602650681291
0.2377394750400257
0.2554619561861591
0.260271831686393
0.2592662122372237
0.2554849700038983
0.2502953710811589
0.2441824534312337
0.2403320077058262
0.2395161224756761
0.2434938528923003
0.2540904317441263
0.2730956694315919
0.3099280778525417
0.3541128505744361
0.3566162433675115
0.3052504533220693
0.2083324180393704
0.1180852909251449
0.2257438448776553
0.2400648017692165
0.257487310357976
0.2614237446528053
0.2600706266448907
0.2566901400321213
0.2512836166468736
0.2450608254616935
0.2414863570660847
0.2411371799809479
0.2457933510746242
0.2575800904495413
0.2780453700761154
0.3175426015923022
0.3629459146253582
0.3619440040913222
0.3050335103758806
0.203958588562706
0.1144945657929389
0.2283984486924823
0.242467795279698
0.2588995024707238
0.2624278220270963
0.2611040289245887
0.2577517387725853
0.2520544823572916
0.2460539815466549
0.2430141943886236
0.2432099877626387
0.2484574708464845
0.260779103029096
0.2822716617547798
0.3229807706905312
0.3707009195878814
0.3681998033645536
0.3061408102887193
0.2013568434333641
0.1125380706393969
0.2313919666070791
0.2447806630796257
0.2604719003920874
0.2636948924941495
0.2626562307129974
0.2586923398033043
0.2527065853144659
0.2469766252737385
0.2442181478568743
0.2450508791192702
0.2506311987700433
0.2634458461064359
0.2865819834448844
0.3288568793952322
0.3762152422036333
0.37137640963631
0.3061109861420152
0.1990538953117702
0.1112793928540618
0.2340690411925338
0.2468073206812409
0.2621360408180624
0.2651934540234426
0.2642976204596785
0.2598025607391179
0.253353672673892
0.2475577207622474
0.2449913656976852
0.2464549487133858
0.252426163990215
0.2657476462067318
0.2903278262022912
0.3339067998125058
0.38128677369199
0.373960101462852
0.304756957804528
0.1964477076146434
0.1097834958115694
0.2370374363721519
0.2488137841697102
0.2635787188075091
0.2668507548946129
0.2656271078231373
0.260613507441845
0.25407331074984
0.2482200100907177
0.2459368555558244
0.247844897158849
0.2541879560707549
0.2681382771171385
0.2936387946439878
0.3382826671089407
0.3855687493274784
0.3756652062946869
0.3051804251933263
0.1961876863101293
0.1086604025339806
0.2396047832779735
0.2507015883662378
0.2649949697140911
0.2683128516519739
0.2668036983774947
0.2610104067039624
0.2544021586927131
0.2488782812597384
0.2470275646700112
0.2489762462567027
0.2555522760223269
0.270319898283981
0.2976343037205735
0.3429244915135659
0.3875690502361519
0.3761071658758764
0.3046966735553632
0.1960927977491881
0.1082279152956931
0.241151290408942
0.2521606576130348
0.2661834318906366
0.2692998209621648
0.2678550054084667
0.261407984583428
0.2546356685934338
0.2491925949652247
0.2476276611996955
0.2497823436071197
0.2564869557390587
0.2719389479860175
0.3013961535653971
0.3480533606894247
0.3884727302241469
0.3749338399065396
0.3022420255548871
0.1943358802393361
0.108206504001491
0.2429872434324417
0.2537966533719793
0.2670417966988587
0.2701014870683229
0.2687493955457041
0.2616908752462543
0.2550976309767737
0.2496200708684094
0.2479535244211299
0.2506863732834663
0.2574422399529799
0.2733438401579538
0.3037676784539199
0.3518179927366879
0.3895031292077195
0.3725326711690673
0.3003831137818102
0.1931957623828484
0.1081696111651319
0.2449547711392023
0.2556682824039308
0.2684379456320316
0.271111119945729
0.2694871259225364
0.2621944122020134
0.2555408520358904
0.2502707353587452
0.2485780672774822
0.2517192573508821
0.2588430378318359
0.2751131440298867
0.3059884402236928
0.3543905803486128
0.3897382429869888
0.3698634603029758
0.2978793365067563
0.1916889909114985
0.108152568102224
0.2464326282034969
0.2568534866990107
0.2695567974895823
0.2722363372401097
0.2701310887513236
0.2629926960364913
0.2561303268191307
0.2506548215826788
0.2492025163627719
0.252682489454118
0.2601569949552389
0.2768167003904097
0.3080660610394179
0.3561727491917784
0.3902881267497661
0.3690046557314781
0.2954205787214554
0.1897589886376537
0.1079062024036034
0.2478366391339134
0.258011448556434
0.2702742149427146
0.2727769032042605
0.2702736505662863
0.2633747073006711
0.2565461701057975
0.2508631356317554
0.2494827144888571
0.2534363758649492
0.2611916018406876
0.2779053233924264
0.3088534509668878
0.3576286211250582
0.3924542448381457
0.3690371343789319
0.2934699749016976
0.1881752230141978
0.1070223654959358
0.2493781519756467
0.2596462117540843
0.2716118067313544
0.2732471783928507
0.2701474118865694
0.2636337715196942
0.2569681315144327
0.2515543306352134
0.2499301017619234
0.2539870141672396
0.262230497173517
0.2791057078265082
0.3099944987448261
0.3592094558185238
0.3919189444690862
0.3665480051289335
0.2919766664097159
0.187535828285881
0.1067514627247713
0.1651836950278217
0.1647393686706926
0.1638041730117619
0.1637243371846014
0.1637889575358887
0.162917169227028
0.1624469763452901
0.1624397472016012
0.1625426952786669
0.162650092390938
0.1631723783997934
0.1649783039566107
0.1672412515970356
0.169724689073856
0.1721252201257812
0.174295169524332
0.1774809425020499
0.1805668043861414
0.1834135540307113
0.1601798447570479
0.1589370312492905
0.1564133973088435
0.1554839909919674
0.1552838268026046
0.154868574592319
0.1554089261561347
0.1562475107063385
0.1569344073262904
0.157890226475478
0.1595405657196731
0.162418889591369
0.1653780256564471
0.1680454582531406
0.1707223780127925
0.1729224850355797
0.1756361748455327
0.1784773688698235
0.1809207695495783
0.1593572912408197
0.1584987988262836
0.1562897479127869
0.1569419102565072
0.1582248468090246
0.1596489767422484
0.1615600206090962
0.1635639682664762
0.1653621787388784
0.1676062555957087
0.1705858633256446
0.173630407900012
0.1768919871651923
0.1806238971856072
0.184458941942428
0.1883046572774435
0.1916487630334142
0.1945427694355971
0.1973388343297173
0.1637336086969319
0.1641493451213017
0.1636588242424751
0.1660787742866021
0.1681316237634294
0.1707845138662459
0.1736465578214134
0.1763800173466365
0.1784540642721918
0.1807192584332638
0.1843880637352432
0.1881872959359761
0.1926389365835473
0.197924690832985
0.2024417454623748
0.2068399142815336
0.2111666142776042
0.2152054259645242
0.2195549875117726
0.171281088473989
0.1727301613893843
0.1730781813463692
0.1758314190328618
0.1782480168933381
0.1808186190798553
0.1834582886916568
0.1860146504502402
0.1888492086380588
0.19238297942216
0.1971307388102405
0.2024314675786067
0.2083437029788559
0.2147842200641682
0.2200712673138225
0.2248315444991361
0.2295855839797577
0.2335756412124607
0.2373128096109616
0.1791943189738574
0.1805479624662249
0.1802445937459884
0.1826699000638927
0.1852273347694656
0.187359379728155
0.189846354202806
0.1932840981199819
0.1976610630224468
0.2029689516386643
0.2090274143958288
0.2154083166033964
0.2222795094714015
0.2283359816645744
0.2328560617933592
0.2366003812350893
0.2391715181234272
0.2408591630588923
0.24233600796565
0.1864261665464045
0.1858044077069537
0.1842606150271283
0.186667301368841
0.1893637500634943
0.1918990918659005
0.1960674850959217
0.2012680404729879
0.2072591642377966
0.2134949933582193
0.2198687842393811
0.2260844486004243
0.2315736942076775
0.2359767253661206
0.2387319379641541
0.2404183464723716
0.2408250045819074
0.2405620982426749
0.2400562446515625
0.1902671642767207
0.1871450890869011
0.1858234144415901
0.1889480250779407
0.1928426700508095
0.1973731478478546
0.2036291875473735
0.2100509779763311
0.2168918302278294
0.2232088921343518
0.228824983832561
0.2338566736990155
0.2367601416059582
0.239007048250708
0.2401156747183578
0.2401647867609969
0.2394276436206675
0.2381080440274707
0.236408979345071
0.1912895397697759
0.1873828439344059
0.1873784144740771
0.1922742213924893
0.1978967379571952
0.2046545015753225
0.2127299974394811
0.220404446745052
0.2268041276215298
0.2317914529625688
0.2354074420520591
0.2382319718907421
0.2397495092637913
0.2402015130849798
0.2397785220247936
0.2386791613861897
0.2373077926121162
0.235624492637202
0.2335227280228378
0.1904083635092054
0.1873369424689983
0.1905784618661951
0.1977486517944668
0.2050946531650261
0.213942583268128
0.2226303090957542
0.230038695502848
0.2347783636087503
0.2379732956728441
0.2402093237947795
0.2404380897327741
0.2404486609839458
0.2401268635619707
0.2390557247437
0.2376846783651461
0.2360133263868179
0.2341852195978218
0.232224251908202
0.1885796849927917
0.1878209794860882
0.194701084362056
0.2048503998714794
0.2144968311386186
0.2241123851101454
0.2318697255756521
0.2376373590123156
0.2405448024682092
0.2419933902949876
0.2427755378902353
0.2420989313385558
0.2409158136388563
0.2397302959492996
0.2385766873188073
0.2373300566154129
0.2358423376961985
0.2342562266639677
0.2326567099108764
0.1886545187022
0.1906374920832299
0.2005242411827053
0.2130515718773546
0.2240380937861683
0.2333709992960569
0.2402728560597451
0.2442773874855514
0.2455016150810145
0.2452728354781203
0.2443157908377329
0.2431474108346652
0.2415976704000448
0.2399877201012728
0.2387627815453153
0.2377901225846165
0.2365903946976749
0.2354999664796209
0.2348124958957754
0.1903734455732413
0.195441130875756
0.2091483473198918
0.2228759167224505
0.233834314171281
0.2420991743605601
0.2472093680979209
0.249342828912553
0.2494232902376455
0.2479090475253758
0.2453918423319895
0.2436013503576671
0.241968785273357
0.2407243800946552
0.2397662298109733
0.2389463304512857
0.2385212848485106
0.238426620909667
0.2388385259431391
0.1936138263883682
0.2024723365418663
0.2188520167467423
0.2325864888707031
0.2429870897538801
0.2492302764140392
0.2527005655947573
0.2536912988296323
0.2525602814361027
0.2496758241171495
0.2462424156050789
0.2440702972682984
0.2424434277504045
0.241646985120457
0.2412028659808799
0.2410861698432017
0.2416401821360364
0.2426286065944988
0.2443660396136067
0.1996889703795815
0.2104821682122942
0.2275733765182754
0.2414605665125321
0.251180211674706
0.2558574673875177
0.2575732891910309
0.2567968422669647
0.2538403595603166
0.250105191385586
0.2471085717903717
0.2448696199298718
0.2434637713020715
0.2430018796165647
0.2430886351789179
0.244048503173311
0.2458371148846802
0.2482286859938017
0.2534170651784966
0.2075230102518149
0.2194005895516585
0.2372650458857274
0.2504610585314616
0.2585096130477622
0.2618951447568417
0.2611814035685353
0.2588955198791202
0.2549374629383953
0.2505835621283264
0.2477094200601614
0.2455794024129205
0.2447276284571149
0.2447744783394158
0.2460428215222227
0.2480558032989233
0.2510568286988852
0.2566556049761596
0.2684295514695654
0.2146008489347176
0.2280763171476557
0.2472493812513191
0.2581694622623552
0.2641955133732009
0.265594807770169
0.2635781497423605
0.2606635085152465
0.256034591872597
0.2514188125757273
0.2481237067202746
0.2464776930461559
0.2463642877491876
0.2470926604720343
0.2493975199056388
0.2527951189770201
0.2580564292008369
0.2693547836552271
0.2875151372302433
0.2216949847832928
0.2360105237884979
0.2556240728448264
0.2647191229818847
0.2683396121571664
0.2683597756786407
0.2658491780149077
0.2615200604935558
0.2557801460725808
0.2515229662275716
0.2485404167480734
0.2476021176171209
0.248271679688887
0.2500591680956188
0.2532116947306889
0.2587472784468547
0.2685186789174124
0.2874099073160774
0.3063731278304705
0.2295698809157772
0.2442866215888366
0.2617736182546739
0.269517904320075
0.2715381532053604
0.2703173902693124
0.2673054722031044
0.2620066027726069
0.2557332777572002
0.2514961517129948
0.2491702486493082
0.2488268562893485
0.2502942730873974
0.2535669750747678
0.2582701138219529
0.2669713150383215
0.2828957597617609
0.3074350389230655
0.3170939968526949
0.2375854120687569
0.2519815851164748
0.2669620762450949
0.2736485356951326
0.2747378932290329
0.2719948120797686
0.2679890165395094
0.2619536333461407
0.2558982482292891
0.2519899862697602
0.2499522846453471
0.2502890451779456
0.2529167093005014
0.2574975399620798
0.2643778720279503
0.2770213388824561
0.3001843866615152
0.3244171746706458
0.3185846120796649
0.2446572139624892
0.2578998775640064
0.2715928377916446
0.2770389548489887
0.2773995709466485
0.2738723344654215
0.2683356612150818
0.2618300686549169
0.2560677826854347
0.2523605657821262
0.2507356477264195
0.2519076767781849
0.2558084404178355
0.2619239623480474
0.2717080696512799
0.2894724419662669
0.3184810820044352
0.3390044263236517
0.3091932142428233
0.250863515545002
0.2625446218931191
0.276053932952629
0.2797834810539978
0.278655951499234
0.2749103184607704
0.2684352718902039
0.2616905173444703
0.2559999446989949
0.2524952105313979
0.2514323214579735
0.2535819893829372
0.2589196955756772
0.2668769676413031
0.2796515954514068
0.3042500607265264
0.3375084547971413
0.3527494982621468
0.2816988642742195
0.2564190944263722
0.2665926652393009
0.2796983419236872
0.2822773790867663
0.279316003029409
0.2751623207468099
0.2686078521047481
0.2612549206497397
0.2558355531138545
0.2526314908427643
0.2522592128333135
0.2558460531267961
0.2625555849075051
0.2725229922558148
0.290130785179267
0.321435496887286
0.3548804461281303
0.3476411749850083
0.2501924654811356
0.2601492920007741
0.2697842017604028
0.2814593875210341
0.2832195879721151
0.2797374910270051
0.2747762948896745
0.2682098939888606
0.2609463413325212
0.2559021654801001
0.2529870186330312
0.2535986898753451
0.2583365002208312
0.2662463333508122
0.2789057092301014
0.3021073971908331
0.3383198106991104
0.3676241813918879
0.3312472922629818
0.2246742812623494
0.2632082067242444
0.2721465469027984
0.2830639773371375
0.2839460080468252
0.2803186753635328
0.2747784564143285
0.2675999405295521
0.2600521875361909
0.2555996485551433
0.2538552743796001
0.2555859243707446
0.2609083340771931
0.2702496020057617
0.286504763941853
0.314133609660773
0.351832709494135
0.3734089683349092
0.3189370173870843
0.2000328425180941
0.2652923504351827
0.273255481182769
0.2840022075015442
0.2846301010795347
0.2809969029516261
0.2745528983550704
0.2669375988502753
0.2595529725632716
0.2552979881055193
0.2545935731975157
0.2574689133561282
0.2637122757433819
0.2741899721255382
0.2937608585750034
0.3261721302640056
0.3637745282968619
0.3672975302631613
0.2966208717992763
0.1782847429848109
0.2663612288277131
0.2737516037714186
0.2840875888443628
0.2844719560801109
0.2809167768026176
0.2737605765358128
0.266017231649278
0.2595703794212931
0.2555063938139942
0.2551811840609359
0.2589279582456974
0.2662691254242191
0.2782923560318943
0.3002420982654073
0.3365236938548706
0.37458266383169
0.3632747847458726
0.2761611315794104
0.1605822226982552
0.2671839499718197
0.2738826261522774
0.2838482394941966
0.2840574044544486
0.2800960030939236
0.2732472312291754
0.2655927364316129
0.2595549698321296
0.2554974636953966
0.2553468768077392
0.2599821971029598
0.2679996110238051
0.2825094824072962
0.3076613327838531
0.3472521844325286
0.3853881823212782
0.3660012490229072
0.2655392508326084
0.1491266390338952
0.268042704019553
0.2746221141330725
0.2840409358564432
0.2837439638331437
0.2791483092425402
0.2729483036711444
0.265821408681992
0.2595721502817429
0.2552126661453878
0.2552357236594114
0.260562717470795
0.2696075090675376
0.2866270747099834
0.3150063821348726
0.3565654436572819
0.3886694460831655
0.3600811755505676
0.2546901138711763
0.141686041376484
0.2681967852669648
0.2752093324145582
0.2840688495919015
0.283370177599789
0.2786197212876928
0.2725140230874141
0.2655247321951111
0.2589652052993898
0.2549385326969281
0.2553670637622757
0.2612556808895116
0.2720440940797003
0.290995971585241
0.3208889092486578
0.3636326306131711
0.3836300652345798
0.3420847155979967
0.2391239811217938
0.1343751453821044
0.2676344584829008
0.2748252541259586
0.2834557536599
0.2828210733762001
0.2782058622458657
0.271731690324406
0.2648320488870492
0.2582677560653189
0.2547299532105298
0.2557614579899318
0.262099994056201
0.2739855551421482
0.2935503031510336
0.3254579122842629
0.371189887577364
0.3803895643127245
0.3263949631016938
0.2255650825324509
0.128205407615205
0.2669189653210251
0.2742285120075938
0.2833887452639749
0.2822002903081147
0.2776296344679153
0.2711204933120962
0.2642504213595751
0.2577628076223753
0.2547533906499257
0.2564543813309983
0.2629839935578116
0.2755847632377972
0.2958149117239638
0.3303769746251227
0.3779803634098618
0.3815650594012217
0.3208054948725431
0.2166554009095512
0.1228173560167226
0.2667538150006012
0.2735308677042771
0.2834633799250707
0.2819969611244566
0.2770728900019955
0.2706779847966928
0.263377629389088
0.2573253689498018
0.2550379444523885
0.2570469357854983
0.2638188734992615
0.2771721634451998
0.298595241441891
0.3361674698179607
0.3838805474899738
0.3845972506778123
0.3188679361103831
0.2104280783158137
0.1201551286602163
0.2661235726939814
0.2726503549352368
0.2830616851640207
0.2821158463942846
0.2767402240462945
0.2702977917658484
0.2626781697412158
0.2566833935900243
0.2546675604280153
0.2570785243213889
0.2638868718012837
0.2779173373462724
0.3006380334129102
0.3411386353606718
0.3880985911252497
0.3855147698758415
0.3173910358424784
0.2059847041930328
0.1173850801104983
0.2649788707474084
0.2717160704523411
0.2822164843636106
0.2817878985476138
0.2763007308968519
0.2694510001895235
0.2621693500256175
0.256267823795748
0.2540424041030719
0.2569516345628301
0.2639918175929835
0.2785009660918318
0.3019163816370931
0.3441562878435964
0.3908688364745247
0.3866397512554128
0.3156479500882283
0.201413183165297
0.1138026001018923
0.2639788737886389
0.270579599420158
0.2808587354627023
0.2811718376738041
0.2758055211970722
0.2686340442373916
0.2616902828548238
0.2557986352407818
0.2539469190110839
0.2570564472812421
0.2644480312400279
0.279057038894857
0.302540157381218
0.3469463057129338
0.3951100594426108
0.3886399991677361
0.31279431058803
0.198065191446875
0.112220196343161
0.2627265985172244
0.2693356574511591
0.2794533167447468
0.2805503651323262
0.275257600022405
0.26819980392992
0.2612261860402609
0.2550309268459106
0.2537195911646139
0.2571015718548263
0.2646454174435468
0.2796230573316891
0.303985978838842
0.3497943465627341
0.3979875939822347
0.3889397187383621
0.3106229490369999
0.1965739045754492
0.1117024089118556
0.2611255153855775
0.2677132468787385