/*--------------------------------*- C++ -*----------------------------------*\
| =========                 |                                                 |
| \\      /  F ield         | OpenFOAM: The Open Source CFD Toolbox           |
|  \\    /   O peration     | Version:  2112                                  |
|   \\  /    A nd           | Website:  www.openfoam.com                      |
|    \\/     M anipulation  |                                                 |
\*---------------------------------------------------------------------------*/
FoamFile
{
    version     2.0;
    format      ascii;
    arch        "LSB;label=32;scalar=64";
    class       volSymmTensorField;
    location    "0.0007";
    object      tauij_LES;
}
// * * * * * * * * * * * * * * * * * * * * * * * * * * * * * * * * * * * * * // 
 
dimensions      [0 2 -2 0 0 0 0];
 
internalField   nonuniform List<symmTensor> 
13597
(
( 0.1685809801093223 -0.0161716587954839 -0.0069681277426385 0.136338161753489 0.0301548667922699 0.2283315416338015 )
( 0.1685675016503582 -0.012147396420682 -0.0033895200733483 0.1340760781149704 0.0328826869692925 0.2236704911114947 )
( 0.1663401245987648 -0.0039988967906992 0.0026593144059713 0.1259711241432981 0.0365755441662621 0.2107054218301459 )
( 0.1635740122845944 0.006307245397269 0.0093473670213056 0.1145454474487015 0.0406440101513776 0.1941704139694175 )
( 0.1617980852483943 0.0134690548542326 0.0143841460887842 0.105172402020394 0.0433604200849616 0.1801175692547779 )
( 0.1606714685531869 0.0176738206578035 0.0187765415183948 0.0978137712578686 0.0447273388856131 0.1676899727445693 )
( 0.1596493892384453 0.0210749088804378 0.0228936691209944 0.0904331000829957 0.0452690452847972 0.1552557703733411 )
( 0.1578035365857521 0.0236765430677328 0.0269629877988751 0.0825387138646553 0.0447217434226799 0.1425049208307294 )
( 0.1558536582316604 0.0257569310361028 0.0309838333130559 0.0750131507439767 0.0432190895923158 0.1314348646009006 )
( 0.154641215510047 0.0272457865484305 0.0347280144185886 0.0680386061587435 0.0409780781327744 0.121156398182263 )
( 0.1526121603923257 0.0284591685993977 0.0387263179868841 0.0616364137865755 0.0380606463287225 0.1110464753778969 )
( 0.1507095450276017 0.0294034564947841 0.0423275791639526 0.0562350712671004 0.0347297981825882 0.1034520529936508 )
( 0.1490859184041184 0.0300480402097622 0.0454028071976853 0.05131734588031 0.0308646549496055 0.0979155067314186 )
( 0.1467973436166231 0.0305113342746746 0.0484827190309824 0.0472672127622619 0.0264313186171065 0.0937327387871575 )
( 0.1448594538794058 0.0307125300402045 0.0517686619689071 0.0444853266689325 0.0216452554516032 0.0914937344434905 )
( 0.1433908143196294 0.0308397362320005 0.0547382004352457 0.0427019947947055 0.0170719529093168 0.0908256685880785 )
( 0.14158519813548 0.0311690680582915 0.0568365106238837 0.041659593024771 0.0131960171672271 0.0908642601661776 )
( 0.1389783124913811 0.0315069464248646 0.0583075843061894 0.0409871291495448 0.0093409346318369 0.092245528903396 )
( 0.1364234637371976 0.0317592374973597 0.0595681677309846 0.0410022277171121 0.0055362829874089 0.0946710112706843 )
( 0.1856331501609858 -0.0204730251823781 0.0065995061357843 0.1595303363107326 0.0426790248407649 0.237525550007813 )
( 0.1864895044136552 -0.0159520455645511 0.0119246186559474 0.1572127725710123 0.0468274040234183 0.228791514195859 )
( 0.1824954893161451 -0.0065561417049418 0.0200710630505751 0.1463291721935908 0.0521084071812429 0.2066822936618598 )
( 0.1778109153239524 0.0029322101707269 0.0279154312505443 0.1343816748994284 0.0571669944016454 0.1834325630795096 )
( 0.1746674120259674 0.0083161693110591 0.0330989143621522 0.1251547040226617 0.0591895083467304 0.1640644458877751 )
( 0.1715648581182728 0.0119829587878307 0.0374414880229925 0.1162841919012145 0.0587449683523091 0.1457211344254854 )
( 0.1681730924228252 0.0148947099033822 0.0411374788119361 0.1073074392850503 0.0567116430378377 0.1288324347261449 )
( 0.1645703978350471 0.0170267515752792 0.0444538015840183 0.0987834281867733 0.0532584808770481 0.1134882759826162 )
( 0.1610379666917342 0.0189716913322363 0.0472906727063871 0.0906817838629013 0.0486474543039109 0.1010857139045849 )
( 0.1578575167610266 0.0202715587972593 0.0496760645177025 0.0830342584674245 0.0430099365137225 0.0913010384780406 )
( 0.1541522964810909 0.0211485267098504 0.0518059452447569 0.0761859351693569 0.0362941364237599 0.084219406932972 )
( 0.1498066710960031 0.0216437776219827 0.0533820458480855 0.0703287744287747 0.028834620655418 0.0808089625751242 )
( 0.1463615994602663 0.0216731404085961 0.0549566897015194 0.0652279296615912 0.0212165169537648 0.0810164417617851 )
( 0.1428961953836981 0.0218712013529074 0.0565763204784173 0.0611943621218069 0.01383578992244 0.0845448297449959 )
( 0.1391786097303865 0.0219830445541337 0.0578316532516108 0.0586387088811705 0.0071154726600254 0.090764592415783 )
( 0.1367829621756176 0.0217801491066534 0.0591682928366697 0.0572495852594228 0.0012755941026782 0.0981491317178647 )
( 0.1349987987964979 0.021556513434985 0.0605421699690311 0.0567012386617605 -0.0035310526517311 0.1053702188249593 )
( 0.1327082295355717 0.0213974178612219 0.061488303586128 0.0565307626177438 -0.0078278480137519 0.1130364906845796 )
( 0.1306668685730383 0.0211985096285384 0.0622731322973848 0.0566491797246604 -0.0114534842140625 0.1204959154068488 )
( 0.1953159436856851 -0.0215889594004418 0.0201968742576549 0.1743071071989953 0.0518498621703909 0.2393341859286574 )
( 0.1943814035227357 -0.0172663477717382 0.0266546184687587 0.1707646368748773 0.056352675489738 0.2248806299020077 )
( 0.1874796387387636 -0.0085448446372946 0.0347382685191388 0.1574034840977479 0.061290461381132 0.1937536579007678 )
( 0.1798852006656289 -0.0013043277017659 0.0407869478418237 0.1437678235867024 0.0641876078993999 0.1630244327565413 )
( 0.1746063128517168 0.0020696369447697 0.0434780338309928 0.1334651622506361 0.0632019695696226 0.1400637473344345 )
( 0.1700408814809139 0.0050704540141354 0.0450955745598228 0.1228997757712067 0.0596178818355129 0.1203689291879383 )
( 0.164922506861632 0.0073330596136711 0.0456762949767799 0.1124888450569811 0.0541266348029977 0.1041351966337854 )
( 0.1595210091992945 0.0086736515859515 0.045428956758459 0.1038507358349867 0.0475980949148752 0.0925074521889282 )
( 0.154481622309092 0.0100185019392263 0.044645111663984 0.0957686456123815 0.040481873735343 0.0861251735505593 )
( 0.1497119464365276 0.0111148014300678 0.0439562085427419 0.0877658767300545 0.0322072053186867 0.084185936180106 )
( 0.1450549289410688 0.0117970423582935 0.0433411794883973 0.0810001014346077 0.0238833559124064 0.0870347451602989 )
( 0.1410394022758556 0.0121690200230825 0.0424827403406885 0.0754322104809674 0.0158239859458991 0.0946350831564069 )
( 0.1379342273989933 0.012251977528479 0.0420172086918215 0.0708772392448982 0.0082744879467951 0.1055547504157998 )
( 0.1351187876199374 0.01237761484695 0.0421979169890938 0.0676970667396771 0.0020432019518656 0.1173582652420033 )
( 0.1329638012646418 0.0124346705248549 0.0425581031997902 0.0657719536835455 -0.0029005768899685 0.128309320288262 )
( 0.1316590901941082 0.0121917791117709 0.0430314015617896 0.0646152217412973 -0.0067377865260444 0.1375111670976117 )
( 0.1308208540455569 0.0119396728233976 0.0434187936005152 0.0639049184799291 -0.0096317641892228 0.1446513092140285 )
( 0.1298853530407589 0.0117555409276326 0.0436203188606342 0.063314298476073 -0.0121144832005519 0.1502830890932361 )
( 0.129483704027001 0.0115192107299284 0.0443001603044847 0.0629089701191886 -0.014390296187399 0.1542381103606132 )
( 0.1946510292340711 -0.0198403423085658 0.0326775463000561 0.1809775934699966 0.0573282113410213 0.2332691735653218 )
( 0.1898180456988477 -0.0157670150524234 0.0385611939709904 0.1747854239679361 0.0616778999261894 0.2120847722855378 )
( 0.1806424321607818 -0.009036155759694 0.0428804289682389 0.1594036243283213 0.0645567267226623 0.1741020377481733 )
( 0.1709440705242156 -0.0037337626137528 0.0439309049126897 0.1438316200659302 0.0634069950617395 0.1388864010242318 )
( 0.1627460974295834 -0.0011508243888926 0.0424460978724616 0.1321613410902625 0.0589585254154183 0.1156234084050669 )
( 0.1555127262500339 0.0012491530340081 0.0399483027545645 0.1213065929858895 0.0526269703026289 0.0993174819903092 )
( 0.1488514439509714 0.0030226054404643 0.0364695291630878 0.1109867828129443 0.0449546130596298 0.089054310735724 )
( 0.1428710422319324 0.0043121704048652 0.0329508819687583 0.1023490433154142 0.0368763638648204 0.085450694558693 )
( 0.1375012834162386 0.0058035030049477 0.0300745669100993 0.0943893611872932 0.0290366041315375 0.0879313689618984 )
( 0.1326377793109088 0.007442559534065 0.0275717200821718 0.0869545052478277 0.0212632175214801 0.0951679352440403 )
( 0.1284008085088211 0.0088173037630739 0.0256002606699815 0.0804629596640258 0.0140433752060575 0.1057453531244654 )
( 0.1251442616272615 0.009714337750247 0.0244020220619259 0.0750627882703496 0.0078652652468842 0.1179990174265086 )
( 0.1227403918426992 0.0105809620112376 0.024022759224491 0.0707998139397362 0.0024050455898985 0.1295876312527566 )
( 0.1214313444235691 0.0113788735206388 0.0239696092914374 0.0676431539460224 -0.0019953938275717 0.1392807289684708 )
( 0.1211897285002795 0.0119709965233565 0.0237390992087484 0.0654848961173761 -0.005318035144866 0.1457079928994613 )
( 0.1211970843212168 0.0126566495982851 0.0234510442662414 0.0639755452489291 -0.0078858155939307 0.1493281034649451 )
( 0.1211617041211862 0.0132845554840993 0.0228897568229595 0.0627924501448224 -0.0098371276043326 0.1507580644351259 )
( 0.1215974313568758 0.0140085989607539 0.0221606655718382 0.0618297390701176 -0.0116459881761352 0.1505658598479103 )
( 0.1227436478398424 0.0146734601677905 0.0217166252022244 0.0609440102062395 -0.013439128432662 0.1492138737245887 )
( 0.184593276960129 -0.0158827218449773 0.0417279216461533 0.1813640565212799 0.0608270234915297 0.221721679064816 )
( 0.1756000528638761 -0.0116754607034113 0.0444944691296535 0.1706764071288971 0.0632606593533618 0.1933719651508117 )
( 0.1644592561105796 -0.007248575649894 0.0433165163628157 0.1536720635614884 0.0629638713958847 0.1511054722393231 )
( 0.1533108323543144 -0.0034791401737607 0.0389032463350241 0.1380511835307437 0.0578122998202058 0.1170753746063563 )
( 0.1437426625893116 -0.001070311230981 0.0335359441274033 0.1262866085703455 0.0508869281013823 0.0980310901480085 )
( 0.1360777562699106 0.0010275044230287 0.0283307218275972 0.1162938299302572 0.0432865137798891 0.0883398800671735 )
( 0.1295186273562055 0.0030844616885235 0.0228566549616764 0.1067753014911677 0.0348628575346849 0.0859893884289085 )
( 0.1234254024115262 0.0050349754912678 0.0182678345965162 0.0985235044483631 0.0267904060789692 0.0901509055929165 )
( 0.1185256630855414 0.0073190870192985 0.0151596191810927 0.0913843338816445 0.0196804576976034 0.0985110139321314 )
( 0.1150646493576576 0.0095732236130191 0.0123703900858235 0.0847609069375284 0.0133570280937697 0.1089098603608349 )
( 0.1125980088212408 0.0118532466345521 0.0101441009931127 0.0786821732004734 0.0074941962426407 0.1204005596599137 )
( 0.1106770162300062 0.0139088923567705 0.0086424978127565 0.073754574075626 0.0024545555918513 0.1306205425707702 )
( 0.1097933172152727 0.0159324458421802 0.0075885452697094 0.0699735540943664 -0.0019207693181349 0.1376071033103724 )
( 0.110316458565182 0.0182464290340719 0.0061901384607447 0.0671466001881592 -0.0055636110943924 0.1419289440829959 )
( 0.1112470259582788 0.020295947499856 0.0042518731376067 0.0652926181577353 -0.0083036134524485 0.1429571409514966 )
( 0.1125263524102083 0.0222773166472393 0.0024013749520187 0.0640034084929365 -0.0105530782905527 0.1421721750154266 )
( 0.1140255324729897 0.0242370515622302 0.0006819453070941 0.0630507501832406 -0.0124400375509474 0.1398185178001232 )
( 0.1160713546314716 0.0263223557182815 -0.001134498120586 0.0624157458929341 -0.0141503508869185 0.1363552165525569 )
( 0.1188591268833707 0.0284067309268997 -0.0027523248798622 0.0616753592572734 -0.0156757047096998 0.1320532616895673 )
( 0.1675104627098297 -0.0098916561804267 0.0459920688401999 0.175163687386818 0.0613467372355932 0.2069253756593183 )
( 0.1556040678759047 -0.0063222509898156 0.0442741667112827 0.1615518854851043 0.061547098143494 0.1723941930562172 )
( 0.1430769800910784 -0.0037237121813696 0.0378973014635762 0.143892741946752 0.0581286661311004 0.1287497363064967 )
( 0.1329273806045977 -0.0011451891499266 0.0300815526861994 0.1298474404760017 0.0503867140644802 0.1009112835842493 )
( 0.1248145689396093 0.0011287543535689 0.023093073361177 0.1193159504872276 0.0419801104289447 0.0891557379085561 )
( 0.1181673872936811 0.0032148029567191 0.0171323173328076 0.1105928857929176 0.0337634502272968 0.0869206001017927 )
( 0.1129238379480226 0.0059605315056701 0.0116770928617657 0.1027221081728868 0.0257322997896032 0.0911734332577755 )
( 0.1078412499799186 0.008630322282663 0.0070659845389359 0.0958172350636961 0.0183100759636705 0.0996573635975368 )
( 0.1032716043686468 0.0116766978154362 0.0036069049228621 0.0898813479303299 0.0116487677774604 0.1100739282959752 )
( 0.1010040191986713 0.015285599101316 4.876532699070754e-06 0.0842389611074811 0.0056539995533851 0.120424364872051 )
( 0.1009890600696187 0.0189510975449291 -0.0033845045733302 0.0793649622158708 0.0004515798250315 0.129194672861986 )
( 0.1015186057050436 0.0227334537746619 -0.0061728847728938 0.0755371147881108 -0.0039935854291937 0.13448252766845 )
( 0.1027924756723594 0.026375881581832 -0.0088672115657597 0.0725239721671719 -0.0080299827416314 0.1366008001973711 )
( 0.1051774468236242 0.0300984256186829 -0.0118270491984772 0.0705438234102775 -0.0113629577903205 0.1362860287335253 )
( 0.1077630081302844 0.0335923385627662 -0.0148963052844906 0.0694112421714022 -0.0139680451840707 0.133807175315293 )
( 0.1104266058592789 0.0365866519555772 -0.01747821428851 0.0686178166793223 -0.0159667741871546 0.1303086555228619 )
( 0.1135419865904282 0.0395289357778333 -0.019748779748272 0.0681270231942362 -0.017603869513999 0.1259663140725974 )
( 0.1166387094351107 0.0423569868416734 -0.0217832987342735 0.0677045186149302 -0.0189075103548995 0.1209903524722075 )
( 0.1200002718289931 0.0449862381521432 -0.0233950671736195 0.0669996211621764 -0.0198181772641099 0.1154466418544219 )
( 0.1467926686830897 -0.0031425683309186 0.0455593739108965 0.1642436285879381 0.0591131467468603 0.1876615577837505 )
( 0.1346562047608029 -0.0008185095696074 0.0400190833616708 0.1497368647985695 0.0571391539518902 0.1503175720266178 )
( 0.1240189922108733 0.0004753251472972 0.0304565116330735 0.1339553326445338 0.0513538038124942 0.1113785803317133 )
( 0.1158992583289087 0.0027190059016146 0.0213808145827041 0.1222997760948259 0.0427192770126964 0.0923823306358537 )
( 0.1098856644032364 0.005096148153132 0.014611245685806 0.1137507990752023 0.0338101155992598 0.0884702741593913 )
( 0.1040466610105205 0.0074851429641409 0.0087944505756695 0.1067394050795773 0.0248592721596171 0.0924731585786398 )
( 0.0988978138496147 0.0106592955851322 0.003629958232971 0.1005168146164141 0.0168425864786971 0.1009929611202164 )
( 0.0952392628855522 0.0140794775123871 -0.0016431288839994 0.0954433636402288 0.0096622579658797 0.1110015774515266 )
( 0.0925697752221714 0.0182663191434768 -0.0065683262719874 0.0912270382158593 0.0029797759155436 0.1210810738737086 )
( 0.0924651058975165 0.0231189765006978 -0.0113271074919677 0.0871685194865224 -0.0027216445076897 0.1289521944785633 )
( 0.0943915985504378 0.0280863527036966 -0.015937621628925 0.0835819634879244 -0.0075352386201687 0.1331423455605858 )
( 0.0975089648114479 0.0333548551415994 -0.0200765291821669 0.0807619756855309 -0.0117831521619745 0.1339326147675299 )
( 0.1017705105959782 0.0383318001353552 -0.0239581497196343 0.078827948257459 -0.0153459249962698 0.1321638120442565 )
( 0.1061748332122687 0.0428682243679801 -0.0274513569485841 0.077612064381499 -0.0182250879519845 0.1287501855468171 )
( 0.1101083162100371 0.0469055983463949 -0.0305621990234042 0.0768986843557417 -0.0204440794376344 0.1241788718614073 )
( 0.1135070296110481 0.0502382916446879 -0.033084503937454 0.0765603184564272 -0.02202247415555 0.1193018510053766 )
( 0.1164633590324325 0.0531400140533738 -0.0351124887630549 0.0760716797877982 -0.0231461554741487 0.1142781870391583 )
( 0.1191019547624528 0.0557719502590863 -0.0368573554202603 0.0754065997665548 -0.0239383752741495 0.1089914107246738 )
( 0.1213583150709725 0.0579453705976444 -0.0381560386671059 0.0743187764834206 -0.0243289873403937 0.103650045943065 )
( 0.1281749957196611 0.0032511840399636 0.0422329325488631 0.1520335142204298 0.0556376454712233 0.1682990003295147 )
( 0.117052722456179 0.004949904556488 0.0345140028824064 0.1378722710458161 0.0517699898046129 0.1323325355603554 )
( 0.1089080055741437 0.0052272686089627 0.0240345503668865 0.1252974561281536 0.0442639577470218 0.1017314549874665 )
( 0.1026226565916614 0.0067821999734651 0.0150354130525481 0.1164944930370609 0.0348093028793694 0.0919392504506605 )
( 0.0974613194844167 0.0094658467776431 0.0085459578929509 0.1099036350667662 0.0253264368900823 0.0945565998479679 )
( 0.0934427963223267 0.0123274068385539 0.0024460756181243 0.1051481935311821 0.0159953980028373 0.1028459348713416 )
( 0.0894005758553201 0.0160621135030794 -0.0033949556877243 0.1009700926565833 0.0073448333323692 0.1137096598812038 )
( 0.0870501291520185 0.020280128590559 -0.0096965722255998 0.0978683904204942 0.0002551662894569 0.1232470861654343 )
( 0.0873703936756775 0.0255434994944208 -0.0161406057930276 0.0955925240197466 -0.006048460012494 0.1306076178582284 )
( 0.089744435674387 0.0316007913547445 -0.0218871579000368 0.0927630511222245 -0.0115082483381 0.1347633584458243 )
( 0.0936470889157139 0.0376787251838331 -0.0272307218135585 0.0903571437158119 -0.0159673349102309 0.1346124714257706 )
( 0.0989760085610309 0.0436670199134839 -0.031974051733049 0.0884373799841433 -0.0198747433466863 0.132007299250677 )
( 0.1048691804195748 0.0490053489467812 -0.0359864853084119 0.0870507794487144 -0.0226643248053408 0.1274792117367636 )
( 0.1100155532112189 0.0535419013903676 -0.0393320940737304 0.086384836969962 -0.0247215598260031 0.1219815618868519 )
( 0.1136896995217941 0.0571830506517769 -0.041837243329046 0.0858131871207528 -0.0262306002582631 0.1165983520507145 )
( 0.116591626360382 0.0601299993483872 -0.0439155839572422 0.0853715482313488 -0.0273694056387355 0.1114883609184605 )
( 0.1185193669941791 0.0624897273727396 -0.045632802311449 0.0845362837459633 -0.0281441067158211 0.1067859885375856 )
( 0.1197690312202459 0.0644265639643436 -0.0471168560587042 0.0833282210077744 -0.0285639729743985 0.1023729933559387 )
( 0.120334635800539 0.0657257419194777 -0.0481577602873092 0.0814732512715647 -0.0286443233809895 0.0984137553613705 )
( 0.1123646374957091 0.0096036566271972 0.0381859106418629 0.139396769663329 0.0512279295554783 0.1512500438508171 )
( 0.1026250029829629 0.0107705260215269 0.0298613135596034 0.1267641500922109 0.0461962185362592 0.1198106085156683 )
( 0.0967144611336236 0.0099836044198807 0.0196402091569922 0.1176770131605289 0.0373346018434355 0.0989643578551367 )
( 0.0922478450406819 0.0108799201643569 0.0112776282435141 0.1120720606961181 0.02686509860648 0.0979487483348298 )
( 0.0881886522446526 0.0134296812830326 0.0040625317104092 0.108037067537161 0.0165090481293986 0.105881280617748 )
( 0.0855826690639229 0.0166061156493908 -0.002817340677044 0.1058610117743633 0.0068861912400124 0.1162773655920892 )
( 0.0841986042046943 0.0209659687069489 -0.0098883115230182 0.1040461203542663 -0.0017570711842659 0.1264161059670274 )
( 0.0844250096542566 0.0262508384927375 -0.0171824386786549 0.1026669139309228 -0.0088797024896736 0.1343209233864682 )
( 0.0871250525239807 0.0324631863382672 -0.0242932168436017 0.1019499962102971 -0.0146603515048043 0.1380506564776201 )
( 0.0919027497731165 0.0392029936717811 -0.0310613345239358 0.1005412159009341 -0.0197246281625564 0.138381264689487 )
( 0.0977513113887215 0.0459127095594175 -0.0365703716848909 0.0990277589451638 -0.0236390954227791 0.1350081986381488 )
( 0.1036585390297732 0.0519156237034992 -0.0409723921212445 0.0974081804351559 -0.0266634757671078 0.1296586538894046 )
( 0.1090636473484511 0.0569243708853034 -0.0446455221230739 0.095809994702065 -0.028853890330455 0.1236300851730992 )
( 0.1133582154065976 0.0609375419984446 -0.0475965269769685 0.0951090830317372 -0.0302770560374703 0.1174418562044561 )
( 0.1159626611542158 0.0638269910004681 -0.0496002278213607 0.0943470206997702 -0.0311250850194196 0.1122408571456936 )
( 0.1175507490038312 0.0660933605262505 -0.0512470127017029 0.0934226750528134 -0.0318933923787616 0.1078697055513708 )
( 0.1181005610237652 0.0677927014901175 -0.0527895208271134 0.0922683010920924 -0.0324438292206366 0.1042215513833175 )
( 0.1179193673691072 0.0689371086734808 -0.0540248715370167 0.090419643274749 -0.0326298604258871 0.1012961741995189 )
( 0.1169310913200874 0.0695995587840085 -0.0548299841115424 0.0878226268708717 -0.0325177331737707 0.0991897681317373 )
( 0.0998105968902258 0.0155846222670293 0.0345839992509019 0.1274343680648434 0.0464443857015 0.1367912079643096 )
( 0.0924614385238997 0.015608344572401 0.0264698459679616 0.1168354869541154 0.0402421979424331 0.1123464493319436 )
( 0.0883683446574698 0.0140216929219437 0.0165969065896372 0.1113210315116921 0.0302349455802533 0.1022338344177108 )
( 0.0855203223728787 0.0147064738796882 0.0084173953208903 0.1093055324332939 0.0189194312017835 0.1085473537630825 )
( 0.0830133189617323 0.017116652008429 0.0005456750139075 0.1085445479154503 0.0079408695850343 0.1196525013772818 )
( 0.0816638832547151 0.0207282526814625 -0.0076789347844678 0.1088311203229755 -0.0019958610160505 0.1303328019446931 )
( 0.0826477981723376 0.0256545049898736 -0.0159610994439359 0.1093230819920021 -0.010598147768458 0.1386332519993424 )
( 0.0856361695464711 0.0317652615225695 -0.0240570378387798 0.1095746664205327 -0.0178211662106556 0.1436352741774045 )
( 0.0898281078231506 0.0384883253702167 -0.0313226058043619 0.1099213470214508 -0.0232418220830238 0.1441259679635014 )
( 0.0958840387126768 0.0452968704988926 -0.03760931706967 0.1093675521059394 -0.0273409810107714 0.1409938473567657 )
( 0.1024002818498844 0.0518393369934803 -0.0429401873288948 0.1078598927301816 -0.0301385023879821 0.1348590002138187 )
( 0.1077201245833416 0.0574085856787726 -0.0471801964937547 0.1058668468018844 -0.0320481322184739 0.1277901521453507 )
( 0.1119016380508332 0.0618187970441249 -0.0504552645171906 0.1040915960772682 -0.0336236396622461 0.1212950471798924 )
( 0.1145956015225913 0.065145516224203 -0.0529323171353305 0.1030079016749881 -0.0345751022471132 0.1155056578410195 )
( 0.1159281621513147 0.0674249324500836 -0.0547881184982471 0.1019234299893036 -0.035184176490333 0.1110762350592947 )
( 0.1161902747112153 0.0691164285773867 -0.0563146374019606 0.1007874798609774 -0.0357455420683723 0.1077923403603405 )
( 0.1155600664442167 0.0703893101733419 -0.0576294809615122 0.0993847555315332 -0.0360648975716302 0.1054968346997554 )
( 0.1143905602701219 0.0712547449667511 -0.0586155349651876 0.0971170201266976 -0.0361181677657813 0.1041704180719162 )
( 0.1128714625228838 0.0719702077273522 -0.0592499118963428 0.0940162067527823 -0.0359539594677012 0.1036916792329693 )
( 0.0911352609188201 0.0206012965263728 0.0323617471205318 0.1168999435378858 0.0419069846546161 0.1268409113467406 )
( 0.0865068692487339 0.0193916614514486 0.0247824935490294 0.10930070983244 0.0344988965610401 0.1109381692314583 )
( 0.0834851002083271 0.0170614221470625 0.014714606527812 0.1074146973396601 0.0229848357988096 0.1107614665282532 )
( 0.081035033187443 0.0176006995463786 0.0059807932775996 0.1084920392026298 0.0109737674664633 0.1220193597557975 )
( 0.0794396232868943 0.0203492514502492 -0.0025185615566799 0.1103498358309608 -0.0005988087821839 0.1341799459513704 )
( 0.0801402842346129 0.0243769364502758 -0.0118172548390811 0.1128161700805364 -0.0107052345265499 0.1443196209216197 )
( 0.0836505876758923 0.0295817706396888 -0.020776367383372 0.11543009094529 -0.0192747930987614 0.1506332954442264 )
( 0.0883468704566216 0.0358195546165497 -0.0289668491329189 0.1173010218689492 -0.0260006725733375 0.1519406296234086 )
( 0.0933439607758267 0.042816474646182 -0.0360849956896797 0.1181299001954274 -0.0303792960499076 0.1487714066196415 )
( 0.0996699293149148 0.0497152128956318 -0.0418785507586828 0.1177448182369989 -0.0333842553094681 0.1431092856635493 )
( 0.1055692389708295 0.0558425940608952 -0.0471671839369939 0.1162318331305755 -0.0352357177684568 0.1349451299173288 )
( 0.1100606389459565 0.0609455228840957 -0.0515381692556227 0.113925851896167 -0.0364929087601221 0.1268358374884356 )
( 0.113001726190218 0.0646884617913747 -0.0545391736553558 0.1119187952555773 -0.0374841832933172 0.1205715941284553 )
( 0.1141689682767994 0.0673613372763539 -0.0566887704827663 0.1103684064834655 -0.0379942683507522 0.1155138560101474 )
( 0.114212989643576 0.0692799088858044 -0.0584221636235976 0.1091206052625015 -0.038510964205876 0.1121465719511657 )
( 0.1134870411499241 0.0708217291160076 -0.0597925619105037 0.1079886684614347 -0.0389166287300349 0.1100529460044467 )
( 0.1123333465396709 0.072150985261132 -0.0609057650040675 0.1063779148401871 -0.0391462372706055 0.1091207304173434 )
( 0.1109789613363501 0.0733778456681683 -0.0617050970412939 0.1040009956946942 -0.0392025193458028 0.1090519892543038 )
( 0.1097483381036504 0.0747696290983819 -0.0622718003241881 0.1008677729091241 -0.0391044642530381 0.1097151083436852 )
( 0.08589342183651 0.0246881620098553 0.0309257096797361 0.1073592345804198 0.0376713837049405 0.1218388277825415 )
( 0.0830164378707288 0.0221993633412715 0.0233855109086323 0.1033052309556157 0.0288618147375961 0.1146028432833244 )
( 0.0806358742808804 0.0192761775069614 0.0130539533090388 0.1058042393451028 0.0156325775975549 0.1226581466124468 )
( 0.0788060906753181 0.0199197281594793 0.0040171724159409 0.1094115269602238 0.0030649695466889 0.1370374925130768 )
( 0.0788232780451789 0.0227803914811611 -0.005247782099885 0.1135956179271527 -0.0089149953778951 0.1490414319875875 )
( 0.0814086963390814 0.0271561131942134 -0.0148554014672328 0.1176364611317039 -0.0190394565528925 0.1576992533924677 )
( 0.0860711302022851 0.0325405827387917 -0.0240401804918234 0.1214836418909865 -0.0268213624291652 0.1604733020437968 )
( 0.0910948680059155 0.0390178742683603 -0.03239010552831 0.1245879236304444 -0.0324466053975979 0.1582030350074349 )
( 0.0967516479775847 0.0461025010533878 -0.0392561242019924 0.1256072708128651 -0.0357722342697459 0.1520709882958944 )
( 0.1028564027637663 0.0527747644717761 -0.0453943302763684 0.1253642535275235 -0.0379838548915679 0.1441497331705201 )
( 0.1075866221088226 0.0585081411126798 -0.0506805628856098 0.1239913023650262 -0.0391361709201958 0.1351034145746804 )
( 0.110850998524066 0.0630138262727256 -0.05476333338509 0.1216278787505316 -0.0400241788825806 0.1272131560545128 )
( 0.1123943371020453 0.0662741693551852 -0.0575173012427559 0.1193393971644124 -0.0406370910944551 0.1212054426287263 )
( 0.1124354562283915 0.0687540656482002 -0.059421275747389 0.1174477657033377 -0.0408881834204534 0.116868539207736 )
( 0.1115941325163401 0.0706246364050291 -0.0610137456298011 0.1162134776354864 -0.0412566613118699 0.1146792263852574 )
( 0.110386861694133 0.0723237596254249 -0.062161453781824 0.1152946274002985 -0.0415841952632223 0.1138265281101569 )
( 0.1092206955903629 0.0741348480421793 -0.0630878239175259 0.113791167756811 -0.0418439625559043 0.1138755162388607 )
( 0.108155387443508 0.0761957578896902 -0.0637076748604987 0.1115133716807672 -0.0420268615659055 0.1144095244020069 )
( 0.1076029753166681 0.0786131274071899 -0.0642844500583977 0.1084846573682802 -0.0421603952717633 0.1159880952497483 )
( 0.0830859122886908 0.0276533136164345 0.030458824117074 0.0992805565648891 0.0335857353928878 0.1228675950675395 )
( 0.0806768953773949 0.0240933936217946 0.0226710641525113 0.0985382924989735 0.0236774877903288 0.1237366229407271 )
( 0.0789384607600148 0.0209679658124647 0.0117685357900091 0.1049723700490375 0.0089506734319896 0.1369366093091321 )
( 0.0787557750283065 0.0216749396835797 0.0023767055152574 0.1112501609124341 -0.0042157829552534 0.1519978426356337 )
( 0.0805062350661919 0.0246006132815399 -0.0075051319276144 0.1177203977717476 -0.0163956238166596 0.162684686440005 )
( 0.0842315283792294 0.0292064096561674 -0.0172138875245644 0.1231261524759977 -0.0263728371759484 0.1685718247742997 )
( 0.088965644507852 0.0350209149419084 -0.0263402293841361 0.127685360776372 -0.0332548343820923 0.1684545448184845 )
( 0.0940383923429039 0.0416734017352806 -0.0349033442958866 0.1316198307493763 -0.0376228735113061 0.1633028762385058 )
( 0.0999370384336226 0.0482399222702609 -0.0419364592786314 0.1333041099023918 -0.0403484850584434 0.155184110815935 )
( 0.1050932784469048 0.0542700886168259 -0.0478053423057411 0.1324398849341942 -0.041729972569508 0.1454941251579921 )
( 0.1084934076000702 0.0597675884573534 -0.0531462583116765 0.1305456281175306 -0.0422593767905174 0.1357819971702334 )
( 0.1103072959083883 0.0639520570601849 -0.0569679534199031 0.1283190663328036 -0.0427808711474796 0.1282735455754649 )
( 0.1105864545642001 0.0670963667671237 -0.0594580781503013 0.1261280177179557 -0.0430010976685773 0.1228333567983989 )
( 0.1097884807294974 0.069697721745156 -0.0612607018158417 0.1245964013664271 -0.0432125893012439 0.1194988966024624 )
( 0.1086555158774491 0.0718674854890576 -0.0625364426418624 0.1237505733856986 -0.0436804144707986 0.1182660026452706 )
( 0.1073508777086905 0.0740662379734703 -0.0634745666596942 0.1230593725681821 -0.0441073783771939 0.1180502275763412 )
( 0.1063852539256005 0.0767795430217286 -0.0643416584112156 0.1221328121892843 -0.04459844712136 0.1187372409219472 )