/*--------------------------------*- C++ -*----------------------------------*\
| =========                 |                                                 |
| \\      /  F ield         | OpenFOAM: The Open Source CFD Toolbox           |
|  \\    /   O peration     | Version:  2112                                  |
|   \\  /    A nd           | Website:  www.openfoam.com                      |
|    \\/     M anipulation  |                                                 |
\*---------------------------------------------------------------------------*/
FoamFile
{
    version     2.0;
    format      ascii;
    arch        "LSB;label=32;scalar=64";
    class       volVectorField;
    location    "0.0007";
    object      U_LES;
}
// * * * * * * * * * * * * * * * * * * * * * * * * * * * * * * * * * * * * * // 
 
dimensions      [0 1 -1 0 0 0 0];
 
internalField   nonuniform List<vector> 
13597
(
( 17.600379328571254 1.9464202262890435 0.0811078769903922 )
( 17.60697072740787 1.988548336512748 0.0874214701289888 )
( 17.63198181635477 2.071372775538309 0.0990566359509462 )
( 17.67060190471282 2.1763662794004657 0.1126043330609528 )
( 17.702721380432155 2.265618552789059 0.1237677658888514 )
( 17.72390215556227 2.3388377364145825 0.1331962677544877 )
( 17.748741089045446 2.4100546285375946 0.1419680219302627 )
( 17.775747571782343 2.4870581428075966 0.1510089572283141 )
( 17.804924708825503 2.564310717163377 0.1594848262103748 )
( 17.83632390479335 2.641365556150137 0.1673935558213075 )
( 17.867722310346693 2.728343697839887 0.1761501006149429 )
( 17.904393561126614 2.8155351858732214 0.1840732512295197 )
( 17.94385008749183 2.9020620790255105 0.190866572174492 )
( 17.982516724679307 2.9946199651503407 0.1986593048094613 )
( 18.02133569336864 3.0905836543503247 0.2080466141136566 )
( 18.06244571937816 3.186736685634269 0.2176396074156958 )
( 18.10605936903819 3.2801074222285345 0.2249240777622711 )
( 18.14976680835392 3.37453301206496 0.2313025062883418 )
( 18.19444442037189 3.4730601683436038 0.2379235881747105 )
( 17.447211524830344 2.005582522793188 0.0908229631088921 )
( 17.432230788178543 2.0609740389034585 0.0999842758512744 )
( 17.431909804072742 2.169779709370165 0.1186721578602214 )
( 17.43654790580135 2.2921222361029305 0.1402985485273944 )
( 17.433778204882984 2.3871453649382537 0.1569081676818716 )
( 17.42758187166059 2.4748580469257 0.1718626935587479 )
( 17.426931402858855 2.5625875715034865 0.1862203439668051 )
( 17.42667399975765 2.655472986897417 0.2010985827051123 )
( 17.430309357791486 2.74976526839205 0.2154324306431307 )
( 17.435178637394973 2.8446488569101898 0.2285775426550882 )
( 17.43912944966879 2.9513104130993946 0.2429772431218629 )
( 17.443064501222132 3.0647678024068634 0.2570552133180864 )
( 17.446389345847447 3.1800516950173336 0.2699899667885908 )
( 17.452717609704628 3.2997983507275603 0.282338693302851 )
( 17.46001889190686 3.4178663164219705 0.2939355338971591 )
( 17.47021608493959 3.530195272935684 0.30375054708468 )
( 17.481492609130267 3.634222773052479 0.3111386321316389 )
( 17.490695150014634 3.74141290467237 0.3172819934774087 )
( 17.504974916219187 3.848177356414279 0.3219817214835571 )
( 17.28586454498054 2.0489629915873877 0.0992097868561323 )
( 17.2438248212511 2.113661384412575 0.1125820665253992 )
( 17.213637775414078 2.238406342682656 0.1380149382079775 )
( 17.18286713455042 2.3714730650672644 0.1654707361144343 )
( 17.146370071852928 2.472478312834902 0.1857119906111771 )
( 17.11698727108941 2.571889200577607 0.2044604444529109 )
( 17.093629383455973 2.674405494580664 0.2215478675714112 )
( 17.0637542615999 2.779933506380412 0.2374928354148665 )
( 17.03844063584172 2.890472479345396 0.2530651074795189 )
( 17.01779575360423 3.010244874822256 0.2671953981520225 )
( 16.994738902616465 3.137254103779917 0.2801990338595356 )
( 16.971110817616793 3.2740304927807045 0.2918575491717821 )
( 16.94875009992197 3.4155777379090333 0.301445615273568 )
( 16.930046707189575 3.552014637019682 0.3083384959390434 )
( 16.91444096207097 3.677741045175645 0.3124778170758393 )
( 16.902062459295966 3.789678996377548 0.3145216001006781 )
( 16.887946278439 3.890785452220849 0.3143797607844797 )
( 16.87261047279501 3.992849669007601 0.3122774351684736 )
( 16.86640943149885 4.09843389831376 0.3091176860808001 )
( 17.116372299640044 2.076247556999866 0.1092800604831492 )
( 17.049040631763113 2.1471058395926264 0.1274208123984085 )
( 16.992698381399002 2.2792232394613707 0.157012183071962 )
( 16.932079876450185 2.418893298790573 0.1869292300780952 )
( 16.866658401666598 2.527880097312849 0.2085394142220999 )
( 16.811191374465906 2.635539207187113 0.2265080398992573 )
( 16.757441055796317 2.750984904042078 0.2420984069469625 )
( 16.70085953203114 2.870772902803571 0.2546473925555052 )
( 16.6529499184805 2.9962812438244324 0.2654204337753711 )
( 16.610201670278517 3.131405003205717 0.2737864238359146 )
( 16.564097804944375 3.2754518470050216 0.2786789824459507 )
( 16.52302453778403 3.4263335808552378 0.2812353800056369 )
( 16.486818141277563 3.5775819141706906 0.2809073798966485 )
( 16.449785177309288 3.722554276985758 0.2778089457277958 )
( 16.413470288897 3.847947943263476 0.2723902188987451 )
( 16.379988572597462 3.955594092283136 0.2660737393669072 )
( 16.346652738544133 4.053687194712104 0.2588586858678217 )
( 16.311030006195605 4.153295064105649 0.2500689021808207 )
( 16.279756452385612 4.26348674967788 0.2406414156304048 )
( 16.949968182713356 2.0876691817267896 0.1213366920159152 )
( 16.866714423636044 2.1640176549798915 0.1433883683577028 )
( 16.784446341333723 2.3041519930492047 0.1752171626528381 )
( 16.695377855242338 2.4471185030381566 0.2025651492809637 )
( 16.608573228926026 2.5608675563181578 0.2203308155533192 )
( 16.530390157123033 2.6757747232044164 0.2336883587223717 )
( 16.451587583351486 2.8011017451649547 0.2431951550874595 )
( 16.374838656108565 2.9306465057727507 0.2489124212772482 )
( 16.307237165704127 3.063670674556041 0.2510869953255347 )
( 16.24200562855952 3.2071384885080167 0.2498983645441419 )
( 16.175186846962227 3.364848438968143 0.2458535761374858 )
( 16.11228888171011 3.5269460445368077 0.2396992008172183 )
( 16.052190222313072 3.684395469612742 0.2308451237916901 )
( 15.991012428985314 3.831751153516412 0.2203783000052769 )
( 15.928684088392126 3.953141073222925 0.2088901979058312 )
( 15.86802987511775 4.062090109606063 0.1975700022386262 )
( 15.81030432931066 4.166512623196735 0.1863829166547867 )
( 15.752908116454488 4.271486831302312 0.1745904158325747 )
( 15.696002112011069 4.388972357315694 0.1624459637109105 )
( 16.79527572118133 2.082200608635564 0.1344330406796546 )
( 16.69691773261815 2.164672478967828 0.1579968824348691 )
( 16.58770684776314 2.315046526764363 0.1887631894911272 )
( 16.47715772147113 2.4602761449679105 0.2104601785414665 )
( 16.375116467550402 2.577498271464425 0.2213551306436028 )
( 16.28015326906018 2.69895797690878 0.2280246918893217 )
( 16.186906848559197 2.827481510609069 0.2295548664508626 )
( 16.09151518590502 2.9609014552236563 0.226968401252132 )
( 15.996269688155886 3.1009525676045726 0.2207847782422284 )
( 15.90417663037563 3.2573902340209644 0.2114870076210705 )
( 15.816038372166338 3.4223524595673616 0.2008033821257109 )
( 15.726103316746226 3.587893156736648 0.1881741462720647 )
( 15.638982121015028 3.749601122824776 0.1741018558126522 )
( 15.554232523424275 3.896313882602143 0.1602766571933274 )
( 15.467077965981147 4.018870486656082 0.1463592487305288 )
( 15.385864425091656 4.127062794732178 0.1336076991416585 )
( 15.3062757593046 4.232069369463031 0.1213822212462214 )
( 15.225754836944466 4.338831678957817 0.1093296697124767 )
( 15.145840854454043 4.459720102994338 0.0975095678086911 )
( 16.646219834197215 2.06511574482769 0.1475915040423444 )
( 16.53331531955681 2.155434968200769 0.1699272995352414 )
( 16.405493160493027 2.313383164361612 0.1948419700433344 )
( 16.279912054435428 2.4579516675843585 0.2089857497312033 )
( 16.164983537381346 2.576824873803095 0.2128960664574501 )
( 16.051615269717377 2.700701615712931 0.2115554830502186 )
( 15.939877760164622 2.832697385349778 0.205958213182319 )
( 15.825741688407437 2.971301807485699 0.1963303980472155 )
( 15.705842374808656 3.115503523350282 0.1838666339866608 )
( 15.592779863441868 3.276776259458876 0.1701746687783416 )
( 15.479651868390286 3.4466428396873554 0.1550908425217679 )
( 15.361150693478573 3.61708871334712 0.1387980011920847 )
( 15.2492583147557 3.7778163566751655 0.1232819361487362 )
( 15.140679299916208 3.92124961605897 0.1090175665531534 )
( 15.030538759485566 4.047525865678003 0.0949106515471382 )
( 14.92615275144156 4.154041504409093 0.0822439977105006 )
( 14.825037796686212 4.256666657729056 0.0708550456823777 )
( 14.721688070504934 4.367653047126143 0.0594325748108782 )
( 14.618946596100775 4.49178929462838 0.0481575950504277 )
( 16.510929975077133 2.040366413331729 0.1585033707544155 )
( 16.38522067132339 2.1341140832609384 0.1771359809490951 )
( 16.24234709822487 2.295701452230601 0.1942229950277719 )
( 16.102047525513843 2.440289876991832 0.2003719322881152 )
( 15.971700046226683 2.5609673301697 0.1973860259493577 )
( 15.840889422478114 2.6888569182075037 0.189350624780458 )
( 15.707979145598536 2.825571292260636 0.1777714455748458 )
( 15.574375682910295 2.964294552279894 0.1634985070108786 )
( 15.43197866364453 3.10963654705248 0.1471973836844302 )
( 15.295388315566557 3.275714075110796 0.1311033730608752 )
( 15.154571427948884 3.449511336685182 0.1139611861441816 )
( 15.011888549095309 3.6234975537412737 0.0969493871437858 )
( 14.875770449626106 3.7845313559496874 0.0819822729063292 )
( 14.739555033718275 3.9223880491733056 0.0675975998074722 )
( 14.611598758582888 4.042185625027989 0.0545953958140613 )
( 14.485905652057076 4.148730728933725 0.0426054473648927 )
( 14.36236749906065 4.254954394903938 0.0315273782129385 )
( 14.238483850362009 4.371702556017747 0.0207975084872012 )
( 14.115216113074894 4.500433037536552 0.0103879784880792 )
( 16.38886349565658 2.003503252737914 0.1654243909072103 )
( 16.249997697856394 2.0967506074002493 0.1783838458416822 )
( 16.0913593437118 2.2615041840685755 0.1877011005635418 )
( 15.938423557702745 2.40730451094151 0.1873389243597942 )
( 15.78985247029064 2.533288274005251 0.1787575529207491 )
( 15.643537723020652 2.6620706595400043 0.1656176547524321 )
( 15.493687129095203 2.7969453245133487 0.1497106298959858 )
( 15.341017655680176 2.9410358292141625 0.1334294694873076 )
( 15.179887159511953 3.0922902072962484 0.1155950503521673 )
( 15.010525960279644 3.258049426173914 0.0969568521427603 )
( 14.842975433633288 3.43392104053646 0.0795837414228788 )
( 14.680739320875432 3.606704188158728 0.063693444279892 )
( 14.516811815056991 3.766773495123727 0.0489027634361952 )
( 14.35748398308204 3.903689484012517 0.0347653893344925 )
( 14.212847464720555 4.01912640960234 0.0227710064166638 )
( 14.06670545417102 4.127738791804348 0.0113081992898856 )
( 13.921106103212274 4.236239118097548 0.0006680957196242 )
( 13.776033760157109 4.355106265242281 -0.0087910041523508 )
( 13.630032027775954 4.48860063386257 -0.0174938310963871 )
( 16.273463083295905 1.9628620747474328 0.169259609619566 )
( 16.1227003391797 2.06220011027567 0.1763760923460118 )
( 15.950693889346915 2.227371881712713 0.1783286054771856 )
( 15.785190259517975 2.3686365194873744 0.1717990820805142 )
( 15.622321821808072 2.498747194959607 0.159008241247276 )
( 15.460007165395202 2.6242687155770046 0.1424454703026069 )
( 15.288979304693951 2.753697479943092 0.123780238424011 )
( 15.11019875819861 2.899292725333835 0.1049045020675808 )
( 14.930305048801046 3.051484641561869 0.0864621771637996 )
( 14.73943170552542 3.217893333682663 0.0683592656918724 )
( 14.549270338662614 3.3994885178419567 0.0514859497405184 )
( 14.365478500322478 3.5751787317305306 0.0364031145020259 )
( 14.18069848492927 3.7308271562950015 0.0221245840956828 )
( 14.004734608413624 3.867196230496338 0.0090417541860512 )
( 13.837667432693438 3.982942660466329 -0.0022005365194569 )
( 13.668869266225238 4.090307392859351 -0.0126162309040739 )
( 13.498834412799669 4.198956268214818 -0.0219088952524254 )
( 13.33167865311079 4.319112643756704 -0.0303058535566752 )
( 13.16611496509632 4.458752541775098 -0.0384539383962127 )
( 16.171206013297997 1.921417738366247 0.1699892455848568 )
( 16.011809320097196 2.027333609498701 0.1713337486346679 )
( 15.820628561945435 2.190541988582165 0.1668280460670571 )
( 15.643598097848884 2.324606114400487 0.1555237554435942 )
( 15.46752398407626 2.451537912671395 0.1394486354466585 )
( 15.284587717850473 2.5755290020997794 0.1206944285763781 )
( 15.09324881359469 2.700613062768614 0.1003911140936105 )
( 14.895936070632894 2.840352881092649 0.0800781361277584 )
( 14.694386104022527 2.9966279924895103 0.0618052183699237 )
( 14.487006688882577 3.166364061468679 0.0451952301082606 )
( 14.276123705073047 3.348000870069739 0.0287761843665169 )
( 14.06521288753959 3.5293802162310164 0.0138018455098358 )
( 13.865829446661513 3.682638938697486 0.0008828333345383 )
( 13.673830342172996 3.817842619743312 -0.0108604732980868 )
( 13.4806564423532 3.9352337793664 -0.0213920988264145 )
( 13.28671604870383 4.040963131902821 -0.0309637828911511 )
( 13.09496388130385 4.151033333260447 -0.0397998792540259 )
( 12.911053474971288 4.275298978674111 -0.0482323435000095 )
( 12.727088479220852 4.422967159649916 -0.0563452960156956 )
( 16.07623031383865 1.8744615310978132 0.167258465879582 )
( 15.904357122770064 1.9848164791451293 0.1631845891138252 )
( 15.696514379319204 2.148597744758065 0.1534855247026526 )
( 15.50859283529095 2.274846082073701 0.1390176325930565 )
( 15.317126758573956 2.393834188663099 0.1205050286562894 )
( 15.11521223275096 2.516565058867453 0.1004328674014782 )
( 14.911137554663844 2.645878431262485 0.0799859429671343 )
( 14.69685190685184 2.786503600127538 0.0601309718066959 )
( 14.47531993374334 2.943897697708463 0.0422342849235586 )
( 14.248677262977626 3.1123678680538505 0.0254768709122856 )
( 14.017994055594306 3.2903954930941754 0.0100332157192701 )
( 13.785624243813745 3.467147456489896 -0.0039061045952091 )
( 13.563867662944835 3.6235373100927695 -0.0162158207410305 )
( 13.349458280420135 3.764401565899953 -0.0274712785982495 )
( 13.13263716676696 3.8814275095580646 -0.0376495368042411 )
( 12.92078745264672 3.984101514155801 -0.0469118791387997 )
( 12.715752042396966 4.095904743954472 -0.0555388981185873 )
( 12.51578374991481 4.2303226981327 -0.0635237592749221 )
( 12.313641762675308 4.38870209138159 -0.0701740887304918 )
( 15.98484482190286 1.8182214873421 0.1622243085207265 )
( 15.800994922242085 1.9314352092407865 0.1538507537538088 )
( 15.58382470284187 2.0968242672450783 0.1401597701295135 )
( 15.381377010069093 2.222487868613136 0.1235575716302163 )
( 15.176086217330564 2.3418007122269846 0.103686227211478 )
( 14.96020778946474 2.463414329750977 0.0828644018417538 )
( 14.740806728890728 2.5918549899928194 0.0628415618071385 )
( 14.506759587066483 2.72946295970645 0.0434238660901405 )
( 14.265608444261185 2.881787235378113 0.0252804536764963 )
( 14.023197978738256 3.0518256740465137 0.009089817886086 )
( 13.771623798464864 3.2345702356682207 -0.0054459529671151 )
( 13.520776530105133 3.407606527933873 -0.0188791631799556 )
( 13.27419386793907 3.563602327964115 -0.0305783901610472 )
( 13.03201537779478 3.7040348782045855 -0.0416461888479455 )
( 12.80125366980493 3.8153541635091743 -0.0518070902802137 )
( 12.581063600269555 3.919722172900121 -0.0603682270809904 )
( 12.361453213987948 4.038997634491866 -0.0679221966259197 )
( 12.140762514546118 4.18158172089067 -0.074244536607505 )
( 11.91237585687396 4.353635347194234 -0.0784275912189349 )
( 15.900677037496472 1.7546997510264566 0.1551165209599736 )
( 15.710231270107778 1.8717847592386545 0.1434292952383954 )
( 15.479450006016672 2.038196245393909 0.1266888318973237 )
( 15.26305014028012 2.1640960228125303 0.1087781850364035 )
( 15.04303781077653 2.283684835186618 0.0884745572626667 )
( 14.81707487051972 2.400960217031264 0.0674059308886983 )
( 14.58244131686546 2.526119717386502 0.0478669596968547 )
( 14.337142723799492 2.6616303966840444 0.0297033874423682 )
( 14.077273221021477 2.8106735712251947 0.0119108652187063 )
( 13.812755775830404 2.9816650468472456 -0.0041332370933775 )
( 13.54019155451595 3.1669113563013305 -0.0185712863676979 )
( 13.265474567592742 3.344875345786908 -0.0318276116819391 )
( 12.998569148883163 3.5031679536253444 -0.0429008481236635 )
( 12.74168315563472 3.635049037855226 -0.0533690717846884 )
( 12.498129645572448 3.743138538240546 -0.0629197769391006 )
( 12.26009182030202 3.856193280770495 -0.0705877545918957 )
( 12.021235979808951 3.989232756045965 -0.0770226908498099 )
( 11.773522269756304 4.135285400210813 -0.0813738693693258 )
( 11.509993898858724 4.313091183510043 -0.0836517050140224 )
( 15.823604348892603 1.6929423286726442 0.1469756891524562 )
( 15.62194093050971 1.814594207804244 0.1319719998328016 )
( 15.369743662197187 1.9832212686363293 0.1127815814931265 )
( 15.14254231445969 2.1013121058078417 0.0937928772445446 )
( 14.91443038376875 2.215189694454934 0.0740693590594316 )
( 14.680475155689816 2.3305186609252044 0.0542774868456537 )
( 14.431333981508931 2.4526533385759097 0.0352221545812396 )
( 14.169749879634075 2.5885201736796795 0.0175587999160378 )
( 13.897144028172828 2.735905682398621 0.0004549852432964 )
( 13.613390256750256 2.903286393266069 -0.0155953336411262 )
( 13.316755133081069 3.09013452875691 -0.0302237655761041 )
( 13.017514946387172 3.269117943824339 -0.0427666528815109 )
( 12.730471867360666 3.4303701326999576 -0.0535357744488597 )
( 12.46490929667613 3.5599325718690844 -0.0634476209157568 )
( 12.210060794620183 3.669871551009863 -0.0716881222625773 )
( 11.952699208869872 3.789582366346012 -0.0783826754167385 )
( 11.685590037158914 3.929328868766156 -0.0835804239745825 )
( 11.405366795580262 4.08779821585852 -0.0863642661360976 )
( 11.125799013626963 4.287918005387885 -0.0887382810657396 )
( 15.750913843133535 1.6337726766888192 0.1383612081250499 )
( 15.537803545754308 1.7564457829716522 0.1216279409751171 )
( 15.270937362245364 1.9233975139210653 0.1012837255766997 )
( 15.032381547255316 2.033822614445568 0.0808140445978619 )
( 14.796186394037557 2.1392317190659944 0.0610540476540029 )
( 14.552256433856137 2.258504627323892 0.0429001032520506 )
( 14.291000257694837 2.3757714789647872 0.0243230956521871 )
( 14.010606457653376 2.504789160063013 0.0063293164628431 )
( 13.721333678568802 2.6565640721819594 -0.0103150529048449 )
( 13.420028262249684 2.8206527747539107 -0.0256198886822916 )
( 13.09630549402558 3.011426179341703 -0.0400122442766185 )
( 12.77215935135128 3.195628516125728 -0.0525797038193006 )
( 12.4766297295471 3.3504809790006966 -0.0627645727227631 )
( 12.20591745771134 3.478535599043915 -0.0710801629989945 )
( 11.936465871634969 3.595209455671924 -0.078261251709464 )
( 11.65606095987561 3.720676253835002 -0.0842261757568478 )
( 11.35735659552853 3.8652611555297183 -0.0874086972484858 )
( 11.050917099427291 4.044293256342006 -0.0908985456371318 )
( 10.784387240055027 4.292322652984892 -0.0958972231192304 )
( 15.682667342171404 1.5748165120574462 0.1290586545126527 )
( 15.45565235410337 1.694603157018849 0.1115637377061607 )
( 15.17928213582524 1.860745487516298 0.0907442414435874 )
( 14.936438503623444 1.967605787614874 0.0700927261399203 )
( 14.689749584709386 2.069332740708566 0.0505688866311005 )
( 14.429814109892428 2.1854486097716896 0.0322862868911379 )
( 14.155114449994024 2.295644646544433 0.0137513509680242 )
( 13.867937204000931 2.4227910970618542 -0.0035408975960205 )
( 13.560719057476131 2.576443340184648 -0.0196040583181879 )
( 13.235067995458564 2.7348034186549826 -0.0347747513395206 )
( 12.89928307152696 2.9209234865228195 -0.0479999598404956 )
( 12.55864696625065 3.117915867358134 -0.0598291519658876 )
( 12.251205794908444 3.272537788897858 -0.0692174662182571 )
( 11.965302727538392 3.3957527357860027 -0.0763471556200603 )
( 11.671112298896215 3.5182456407337126 -0.0835877334003277 )
( 11.357602954927922 3.646535020167911 -0.0889974637319044 )
( 11.034907191355671 3.805146937763225 -0.0924902309035948 )
( 10.73102783590729 4.017790401025506 -0.0982918174396428 )
( 10.494117303183067 4.320462344852708 -0.1031041409539708 )
( 15.614605125319216 1.5158630343354855 0.119259544379769 )
( 15.37772229496152 1.6323917408863724 0.1011956182952559 )
( 15.092647637496905 1.7933498975345863 0.0801221054884584 )
( 14.847636667614845 1.89615890243515 0.0600558714557699 )
( 14.592726757271397 2.0002008205526405 0.0413025238378784 )
( 14.318294835197214 2.1122362348906303 0.0230267414432542 )
( 14.033498830584268 2.211633779815486 0.0047301502946587 )
( 13.734085474724134 2.3398121625348005 -0.0116349244563206 )
( 13.407889079507152 2.4957060331519934 -0.0273220839135546 )
( 13.064125927662186 2.6565471646590546 -0.0420793715340178 )
( 12.709282959179149 2.8343814882104783 -0.0545980718652243 )
( 12.354835073523876 3.019582647392597 -0.0654461221551591 )
( 12.03460122759772 3.178806153543026 -0.0741758374603288 )
( 11.725597634359502 3.310181178130903 -0.081223808519685 )
( 11.404494330019968 3.429546873605803 -0.0878964525337154 )
( 11.06823559236557 3.5637298848956527 -0.0928453569846421 )
( 10.733056278257324 3.744681148860526 -0.0984302975488672 )
( 10.45211167031807 4.0075571072945815 -0.1052778543219717 )
( 10.213372287695734 4.359066319513985 -0.1080310407409447 )
( 15.55143163475437 1.4542089474633932 0.1103505048154543 )
( 15.307530844928625 1.5665093700506478 0.0921824099396463 )
( 15.010995831013044 1.7190256119051477 0.070344137452202 )
( 14.76324934252199 1.8222619685558168 0.0506895508163963 )
( 14.500065799692663 1.9236476879644624 0.0326967780563572 )
( 14.21140696749376 2.033574001573808 0.0145961939992107 )
( 13.925410953443462 2.133012897215453 -0.0029239828756274 )
( 13.611338290490242 2.2515349130654907 -0.0188877761990377 )
( 13.26310046309409 2.4060551547535454 -0.0347672110987643 )
( 12.899822623590378 2.573179347088028 -0.0489010165808292 )
( 12.520645433583232 2.7522212506112704 -0.0609294655471527 )
( 12.160278756457028 2.9261586732764826 -0.0713651018721448 )
( 11.82171301665342 3.0788472784364265 -0.0800108635979064 )
( 11.485744352850784 3.2157277698358766 -0.0863149448401118 )
( 11.148703586485556 3.342003090212072 -0.0911487040887428 )
( 10.80092881337479 3.494598584239042 -0.0958283708676976 )
( 10.464841257905716 3.7076493656194014 -0.1033479108417164 )
( 10.19362354185406 4.012978669573117 -0.110458830433406 )
( 9.856413838558463 4.355103668714638 -0.1123658109248901 )
( 15.496884226361702 1.3917197727580717 0.1017640393484369 )
( 15.241036788490238 1.4958434404364545 0.0832810508247099 )
( 14.935142650598078 1.6431965969052682 0.0612948767075072 )
( 14.681624598705492 1.74611046543571 0.0425606450355586 )
( 14.411171295229076 1.846069811598091 0.0251373185416353 )
( 14.112395202888536 1.9573606386969455 0.0070873355914768 )
( 13.814601595180491 2.055706451248835 -0.0096946611374887 )
( 13.493455606460136 2.165265744612512 -0.0251987135083677 )
( 13.133414816556606 2.3116422680626343 -0.0407762183983536 )
( 12.74837086111888 2.4738540030340386 -0.0549783816629496 )
( 12.350832080356827 2.6597655345885336 -0.0671187996854887 )
( 11.978974267517192 2.839054122427465 -0.0773050580174747 )
( 11.617494059659782 2.984963200512784 -0.0858526820001715 )
( 11.261291631444529 3.116468036528496 -0.0915716802962349 )
( 10.902492157683 3.2635478073602933 -0.0947825398464142 )
( 10.544629922223653 3.4378189476878287 -0.0997209876746031 )
( 10.220856809317391 3.6834659213463703 -0.1088216200861415 )
( 9.899638598639411 4.014519818830308 -0.1132133196701257 )
( 9.379629640383817 4.278642821343558 -0.1136432086678079 )
( 15.442429084412396 1.324328198374267 0.0927449914400442 )
( 15.182130598145452 1.4281482929102027 0.0748165190903965 )
( 14.872530938990474 1.5691179559717354 0.0537688817685175 )
( 14.60788854869388 1.6626369927768965 0.0353431064868597 )
( 14.329829458915665 1.7637237405136998 0.017938424056819 )
( 14.025205548491863 1.878541795174127 0.0003406251368477 )
( 13.713443555497408 1.971939445963508 -0.0157369190375373 )
( 13.38579466828548 2.075148435934422 -0.0306308365043013 )
( 13.007150840786274 2.2191093730220146 -0.0458481864273809 )
( 12.604807740669694 2.379468941459658 -0.0600646161034316 )
( 12.19267933042758 2.562819633224041 -0.0726789021053622 )
( 11.79495123644651 2.7441478290765997 -0.0828485797037406 )
( 11.422359826949313 2.896238460262442 -0.0900269417583714 )
( 11.0596866116422 3.0272309546837506 -0.0950307562781283 )
( 10.678993275491967 3.186780315193228 -0.0995869853810241 )
( 10.30487015645124 3.386393132662467 -0.1065976559494041 )
( 9.981191867006862 3.6600755797821902 -0.1131452955260227 )
( 9.567457301817592 3.989814723613487 -0.1146916646079827 )
( 8.763166457411979 4.107367556412702 -0.1123959618076686 )
( 15.38915578591449 1.255212735249391 0.0840958428833556 )
( 15.12703747397207 1.3608734115135095 0.0672006510903791 )
( 14.813705115972503 1.4991551458471015 0.0471274975966089 )
( 14.543696484359064 1.5880505379619585 0.0292753724129575 )
( 14.25484854635036 1.6850680476118796 0.0120129155041459 )
( 13.935973365865909 1.7887825530243036 -0.0059174931237861 )
( 13.614630526345003 1.8806703363434816 -0.021902798729625 )
( 13.28064182842867 1.981175857291915 -0.0367138523288266 )
( 12.876884371816418 2.123541567360866 -0.0518187457772842 )
( 12.45831175237428 2.289291252579397 -0.0653518055965529 )
( 12.043608102096286 2.466906044564168 -0.0774472498911395 )
( 11.63525176717097 2.648891985187801 -0.0868110959794896 )
( 11.248507888303312 2.8092517828549552 -0.0928840310175025 )
( 10.859911068764047 2.942838910156597 -0.0970874029637969 )
( 10.469145656384304 3.10669721045406 -0.1022054588757895 )
( 10.090311654885683 3.331556192908448 -0.110250763048457 )
( 9.714832860981163 3.631920642669223 -0.115830837918971 )
( 9.22260064171265 3.94474328124816 -0.1182075580774524 )
( 7.956856818276714 3.802197675593216 -0.1069631711703698 )
( 15.339820655588966 1.1935324214844198 0.0758681707306722 )
( 15.071541102288707 1.294935795664169 0.0596661503153716 )
( 14.75558766920248 1.4290293232603857 0.0405814197044807 )
( 14.484643300828813 1.5175506519167885 0.0240480622677351 )
( 14.18559607614794 1.6079807291054269 0.0068244929190414 )
( 13.859182512205685 1.7004779836112531 -0.0111281344174875 )
( 13.529175321553302 1.7957933981106349 -0.0266572689014313 )
( 13.178302852988184 1.9019283253413732 -0.0416095486406821 )
( 12.754731552653322 2.0355858583376896 -0.0572489487212711 )
( 12.315137404155656 2.2003189026680974 -0.070434224500431 )
( 11.89446040384894 2.3717688369483105 -0.0812192944261475 )
( 11.485968840801434 2.540657552047532 -0.0899684594002346 )
( 11.08257421567562 2.698945594378708 -0.0957427468488661 )
( 10.668855440619325 2.845775383936612 -0.100030006706766 )
( 10.2632552742697 3.024155011204705 -0.1037133598643141 )
( 9.8740625710072 3.2701521005171377 -0.1094629258601365 )
( 9.423308847791835 3.58362946810958 -0.1154974157828928 )
( 8.710934491559128 3.7961850753867616 -0.1147882007018357 )
( 7.156061822907547 3.459679018661043 -0.0968659124756094 )
( 15.2973373697864 1.129305766405415 0.0680572448177099 )
( 15.023725052380833 1.2296510064213937 0.0526965367095491 )
( 14.699842656030487 1.360171718125568 0.0344242564126982 )
( 14.42562755263918 1.4419945201473594 0.0188796163152459 )
( 14.12106479020147 1.5319608085335157 0.0022073708864302 )
( 13.794592172279602 1.627149393796349 -0.0158024458678452 )
( 13.461183960823265 1.7207836939084695 -0.0309875575098899 )
( 13.088015213081093 1.8222248090859825 -0.0455744026554616 )
( 12.652391429907036 1.9525331358676332 -0.0614301644412522 )
( 12.204488518314356 2.113403398402524 -0.0740638922719414 )
( 11.766151235776825 2.280211890054856 -0.0844989996493295 )
( 11.333296676710924 2.437328417062093 -0.093473615461038 )
( 10.909969514256863 2.5865534693759726 -0.0998674525122648 )
( 10.483325149334425 2.741613747825352 -0.1052887796753463 )
( 10.067921007563514 2.942501234142992 -0.1088835827173803 )
( 9.649969850760709 3.220090934130953 -0.1134348958247681 )
( 9.133038787099562 3.5234522108385296 -0.1158649748626202 )
( 8.13138188500326 3.567935151305825 -0.1074335176007878 )
( 6.452707720875829 3.132899534617837 -0.0892783221989039 )
( 15.25971258140144 1.0622226568403466 0.0611219269621156 )
( 14.98574210906203 1.162781786925131 0.0469999215517375 )
( 14.652822059127558 1.2921346937773242 0.0298118158698373 )
( 14.370751440729324 1.3681266175795324 0.0146039434973899 )
( 14.058890703249626 1.4531295994975837 -0.0022711038477681 )
( 13.728416409463955 1.5474929470985137 -0.0197312429562367 )
( 13.38827217552258 1.6294419039558312 -0.0350028577376599 )
( 13.002790939989971 1.7280279840663235 -0.0497012563815667 )
( 12.567279707442616 1.8678992284030465 -0.0646895242678569 )
( 12.112260381188964 2.024957662889642 -0.0774260203411807 )
( 11.651203156848384 2.1910481517624523 -0.0888217679130349 )
( 11.193371479038111 2.3383353447944133 -0.0974791061445207 )
( 10.751540127508708 2.479811010612856 -0.1045790902784209 )
( 10.301923067675236 2.6434006153092966 -0.1105980430793248 )
( 9.873415537929567 2.858436229379848 -0.113828099793337 )
( 9.403415685311233 3.152889485267032 -0.1184146022012327 )
( 8.798144484015914 3.4205146886878595 -0.1188432682444811 )
( 7.628758511977468 3.335720086309158 -0.104463457411403 )
( 5.789174965004382 2.7930908541740185 -0.0827512106225111 )
( 15.226666961811253 1.0046011231245136 0.0551847108421325 )
( 14.950336723034402 1.1000723693783834 0.0422042093864047 )
( 14.611510227065065 1.2220752929215564 0.0256003106243048 )
( 14.322610306090109 1.2967735028123848 0.0102340667255822 )
( 14.004201476227044 1.3741748093023585 -0.0066585562587096 )
( 13.67106593095367 1.458949631503755 -0.0231558736798872 )
( 13.316772006482973 1.5347432469505793 -0.0386580001300111 )