/*--------------------------------*- C++ -*----------------------------------*\
| =========                 |                                                 |
| \\      /  F ield         | OpenFOAM: The Open Source CFD Toolbox           |
|  \\    /   O peration     | Version:  2112                                  |
|   \\  /    A nd           | Website:  www.openfoam.com                      |
|    \\/     M anipulation  |                                                 |
\*---------------------------------------------------------------------------*/
FoamFile
{
    version     2.0;
    format      ascii;
    arch        "LSB;label=32;scalar=64";
    class       volScalarField;
    location    "0.0018";
    object      k_LES;
}
// * * * * * * * * * * * * * * * * * * * * * * * * * * * * * * * * * * * * * // 
 
dimensions      [0 2 -2 0 0 0 0];
 
internalField   nonuniform List<scalar> 
13597
(
0.1312034856251547
0.1312586751105602
0.1319254599596685
0.1371052735741848
0.1443763500481295
0.1503139185301898
0.1569823757685281
0.1653546795785637
0.1744436662286746
0.1835299265183454
0.1942228662728689
0.2068286246427622
0.2195292425913186
0.2324737515343103
0.2456256701220844
0.2583264166785959
0.2692055248178228
0.2779001582108457
0.2860907624313339
0.1388253681872045
0.1389604529770682
0.1383750837725861
0.1433688608176134
0.1490808362033137
0.1543726880804392
0.1608555717433595
0.1693739984789944
0.1793008776070395
0.1889509493701948
0.2002669746585384
0.2129015343218475
0.2245900269139656
0.2361325811841959
0.246339319797826
0.2543744978502041
0.2598198570184761
0.2630937366663122
0.2658237793424511
0.1460541062735092
0.1450978112070616
0.1424640643589096
0.1447454743912585
0.1480890461366966
0.1526200672075626
0.1578866706481444
0.1641039444483798
0.171846630109848
0.1806500586910507
0.1895576785106336
0.1982932775156913
0.205944951954118
0.211493863292035
0.2146672217342417
0.2157082125985144
0.2146227265386145
0.211942848782374
0.2090862994979391
0.1496789034667507
0.1476134012037609
0.1427572023187698
0.1424183544332524
0.1443574131675392
0.1475696943706453
0.1517352470617135
0.1566737016695685
0.1623947159654482
0.1679490015226971
0.1716019615213535
0.1744862654630947
0.175783342368237
0.1749414143434902
0.1727146727536137
0.1698018614036872
0.1664534693154229
0.1627775032270186
0.1595931362070871
0.1522172857308582
0.148098479428387
0.1426211171252301
0.1422637295158914
0.1442424539005354
0.1469541977405091
0.1502078999311262
0.1535732009967359
0.1554749477199011
0.1554050690140934
0.1541839129479287
0.1527857798050672
0.1504905792093136
0.147929326510453
0.1455774048232557
0.1438062447895785
0.142779188924949
0.1425637493711709
0.1433625378776244
0.1546173546131359
0.149765968653524
0.1457151877296165
0.1470441600951415
0.1493410876493211
0.1517424591156513
0.1528613196948809
0.1531492699968929
0.1514973792394774
0.1483282689869547
0.1453050063836463
0.1419932941293929
0.1400979162796971
0.1397634601867636
0.1403269794305823
0.1420280062098886
0.1448778674424077
0.1486241629026104
0.1536168519464323
0.1588594137720906
0.155999794501805
0.153980731540938
0.1556988848953226
0.1575104300061111
0.1585299164182329
0.1573684920626823
0.1546600438595775
0.1511099595238714
0.1470710279604831
0.1437161280850018
0.1416348369306024
0.1422962607656253
0.1450324502889748
0.1491417446253466
0.1543637052566383
0.1602768375381794
0.1671971260685756
0.1752442021812442
0.1669340142136501
0.1665927762443421
0.165518903863963
0.1668530374696178
0.1671853450511182
0.1657628608778571
0.1620724087151324
0.1575318377247955
0.1533670005611341
0.1492646697552798
0.1472840347901325
0.148455983343911
0.151917937580845
0.1575348760790473
0.164445795011141
0.1722256197825598
0.1805714984515932
0.1899318358379129
0.199979145042519
0.1783679628525323
0.1796091186149305
0.1786129147384329
0.1787655413494932
0.1771198096565878
0.1729222473286525
0.1667626514895626
0.1611950792036557
0.1567971433532778
0.1541670842057816
0.1546181767144419
0.1585324413619751
0.1644954358313496
0.1728251554058947
0.1821829315487263
0.1920007018102873
0.2021898884644763
0.2131414276959488
0.2248700729135198
0.192359614623069
0.1936484451100558
0.1911124345295604
0.189237208995611
0.1844739288979044
0.1782494800065914
0.1715304458898841
0.1655364624246064
0.1618128658320503
0.1610054846414557
0.1635962943419367
0.1695790847312732
0.1782713331401801
0.1889814524801263
0.200106599929575
0.211626527556555
0.2236758327298398
0.2360448018246619
0.2490240583304405
0.2062386115412906
0.2055088418573419
0.2017459026483611
0.1975952350690058
0.1895933003237374
0.1820319739354934
0.1758686700069631
0.1704726799170077
0.1676285914743982
0.1684695084102169
0.173105347872441
0.1815679113740366
0.1924055256154568
0.2048047009304243
0.2178248814688541
0.231145371995111
0.2448899164896137
0.2585697842961873
0.272840115940295
0.2191728871268724
0.2165845295785277
0.2101235895231234
0.2031467772195117
0.1938811457086477
0.1850862970475781
0.1786496472013391
0.1744272559721772
0.1730019154296799
0.1757075293478492
0.1825799334331878
0.1936038280516411
0.2064767585310142
0.2208694279334096
0.2360288949069458
0.2510606111737597
0.2659668280927155
0.2811757102786281
0.2971964936412727
0.2314080284717652
0.2266882371836031
0.2166123834856757
0.2067403960141674
0.1965389906995215
0.1872692825879311
0.1808379188421869
0.1777461956684094
0.1784491682402053
0.1832368847109229
0.192361931135261
0.2056700933276661
0.2211210623990598
0.2381038586577043
0.254575591432598
0.2705506642695179
0.2874337185971587
0.3049294396975651
0.3227410627916426
0.2421924645611211
0.2335874405456671
0.2210652448668198
0.2092747763411529
0.197823653727357
0.1889513325625923
0.1832709497971206
0.181116093669642
0.1836350084061574
0.1907683140964974
0.2022456160565625
0.2180665378382552
0.2360903032990305
0.2546977943258424
0.272574609791173
0.2906799527458391
0.3100823802884079
0.3297719188292155
0.3497326438568338
0.2504013725893887
0.2385438878837592
0.2233940604366519
0.2103975753465516
0.1989011972588737
0.190454264662198
0.1854516575878433
0.1845435775625987
0.1889448810027312
0.1982104442681661
0.2123521495594638
0.2309328600615861
0.2513770783752174
0.2714030373559593
0.2912485452168596
0.3119764441004757
0.333627772866481
0.3558014252270896
0.3809099505518424
0.2552567819723852
0.2413240680444708
0.22405823541857
0.2107799717906853
0.2003448002623208
0.1918256031747344
0.1878429490321052
0.1887371221219198
0.1948723235215753
0.2060219332210369
0.223132708876402
0.2451206911285237
0.2671778838015253
0.2883405082334356
0.3104652607685205
0.33354456768341
0.3578558239157281
0.3852481532864259
0.4198556441230425
0.2579891006725957
0.2420199253303226
0.223870102472683
0.2106984356413851
0.2003867725711077
0.1926945952114162
0.1902631651567559
0.1928638344121873
0.2007020200849987
0.2142358828678724
0.2334381467983765
0.2579467534955039
0.2820022632251796
0.3049744883291582
0.3297059234641094
0.3556142280501511
0.3843529246677251
0.4207658676388879
0.4650947155520938
0.2598647382961562
0.2424416567158994
0.2238501702081178
0.2105049466927522
0.2002131521236358
0.1939085083704662
0.1928419215378985
0.1964437723118371
0.206548490757445
0.2228890269114062
0.2442446846550603
0.2702832065743157
0.2964154844110581
0.3223434035414139
0.3497618408325176
0.3788884973905351
0.415118465795263
0.4621882397068373
0.5057032268059266
0.2601709284356877
0.2415977512991378
0.2229902651679254
0.2102431356345156
0.2005512243111132
0.1950937502613818
0.1950908096760062
0.2002814168090992
0.2127951352985618
0.2317991295212685
0.2561600015483514
0.2832901048491069
0.3114281193521699
0.340570494511025
0.3704954042949305
0.4052054223523568
0.4516385551399673
0.5080394378496447
0.5367168491136417
0.258932261101132
0.2397248004041894
0.2214476262890881
0.2092953843947465
0.2005183028575931
0.1961904826647956
0.1976747774583409
0.2045835856298758
0.2189064676957958
0.2403423467614773
0.2671359485878738
0.296652839556867
0.3271215381282175
0.3582636672814443
0.3927973174564341
0.4354132575465989
0.4932855750171274
0.5533571466621835
0.5564395033991498
0.2566079314359594
0.2374033736841727
0.2197726356681082
0.2082344502859131
0.2005499157070376
0.1976297276505353
0.2005339200120296
0.2087758548175657
0.2252421997408056
0.2489409947565508
0.2777334849582333
0.3104502962946607
0.3422708030804727
0.3748729167083043
0.4157028662354974
0.4696974127746716
0.5382946467520908
0.5930377992409462
0.5488638220691494
0.2535920780943059
0.2341713432396965
0.2179315309260533
0.2075337383543314
0.2007367786083322
0.1994193906322973
0.2039479501342397
0.2136534748606
0.2321159616425368
0.2576786149479635
0.2881826539852673
0.3222800896154176
0.3556953828188419
0.3930353723674411
0.4405325381895846
0.5068498836929721
0.5825421940018435
0.624182114302486
0.5058071147327483
0.2497047999080187
0.2305850026057432
0.2161363041605489
0.2068247418412485
0.2008798195149113
0.2010275567610294
0.207311346954021
0.2186414612608765
0.2389194364361702
0.2668266612775936
0.2990924365689794
0.3337344034345683
0.3692002032644059
0.4121412909690077
0.4697417020431811
0.5464575225491831
0.6237473367474967
0.6290177030374244
0.4586999562364163
0.2455793547625407
0.2273005042959011
0.2144657340024787
0.2064105419998402
0.2014032541261237
0.2023879358060122
0.2093947994825989
0.2224844479053163
0.2446169272270612
0.2742027284946666
0.3085458371113035
0.3459266983823545
0.384963243165247
0.4329177578385758
0.5003868562378707
0.5859070257998532
0.6605930825206436
0.6145252182936242
0.4150198625145317
0.241829911544343
0.2248741509480934
0.2128977856449626
0.2056645795787304
0.2018588754776821
0.2038105472866748
0.2116969949981941
0.2261138569154817
0.24929593289266
0.2804580367231848
0.3170485488135937
0.3573806545555623
0.4008244811862825
0.4571908564216917
0.5323809089881637
0.623254268032427
0.6871682062057796
0.5975658027516815
0.3691805493603164
0.2385108444645828
0.2227154683453047
0.2116439240378088
0.2048510283050639
0.202158237650567
0.2057007793891339
0.2146323943235382
0.2298269219099082
0.2541942725726802
0.2877135852156046
0.3258923345122304
0.3680853688498386
0.4158880748479238
0.4799213678196958
0.5632269489929294
0.6582437533048139
0.6920132629986518
0.5657008368589467
0.335479398179861
0.23489850186715
0.2202056771451916
0.2106554397096987
0.2047889379193072
0.202865478847905
0.2075375568008591
0.2173578093118483
0.2340284567425936
0.2599283534883095
0.2948202426478652
0.3345272355425954
0.3785392436745471
0.43046347539172
0.4996345267860105
0.591831181097818
0.6883979201798172
0.6920619881025021
0.5316114157197535
0.3075386349405594
0.2312066135904971
0.2176542056215138
0.2095952699881934
0.2051614998440956
0.2038308774878498
0.2087511337195115
0.2196612283360962
0.2378343669042743
0.2650628445560672
0.301785977473511
0.3437520662273203
0.3885381553670401
0.44395990763938
0.5197436709844875
0.6222879521904062
0.7171124444498055
0.7015321020379228
0.5100761595625666
0.2852764993674905
0.2282956669018359
0.2160308535152015
0.2087923243515604
0.2051925771148859
0.2046599873893102
0.2099121409554064
0.2215333012094754
0.2406104691623921
0.2693213476203676
0.307811009180259
0.3516884171364194
0.3992272163466693
0.4607428774002029
0.5413399693787523
0.649851020839216
0.7386971892061855
0.701492104899784
0.4916227903784185
0.2723199568268314
0.2255430665506212
0.2146946662151766
0.2080439372723703
0.2051858818868182
0.2056827967831832
0.2111515081409504
0.2231052700949581
0.243062778516503
0.2735336632680321
0.312545073850285
0.3573939018395932
0.4096756309910636
0.4758369348959315
0.5612848278449247
0.6736656929958189
0.7363317200947785
0.6759229921481685
0.4731616626203646
0.2646666738209016
0.2229205599729155
0.2129402677778335
0.207387842968353
0.2055624639248871
0.2065971688869695
0.2125782169207117
0.2250107706889393
0.2457578871226005
0.2779800976170826
0.3178106570265303
0.3636715119725356
0.4195232464095174
0.4876255039399774
0.579347563252307
0.6949774684629014
0.7305324574388955
0.6486791891920656
0.4562639652256336
0.259132674385707
0.2207179007578375
0.2115612459258119
0.2069936604469833
0.205527821474435
0.2072307499693049
0.2142168652376609
0.227269348290109
0.2490344711300443
0.2822192806117281
0.322797997571316
0.3700981348976365
0.4285897943180122
0.4998363363027741
0.6005485532659948
0.7147490741350078
0.7375897330371679
0.6412503693123187
0.4416818569339966
0.2520774262365748
0.2186554228365131
0.2104768567699303
0.2067408965911729
0.2056113248551253
0.207872039812482
0.2153176954070953
0.2289531764331624
0.2519657912161679
0.2857902353575134
0.3276134067794971
0.3768015563236478
0.437127728610352
0.5103890235559466
0.6180375230481827
0.7337937120462455
0.7489186997213491
0.6410450960754862
0.4310550691756367
0.2440356651648444
0.2171923574433044
0.2097181060680733
0.2065543108700916
0.2058132402911104
0.2083756799487471
0.215974205371401
0.2300587299400117
0.2543637727889671
0.2892518985279693
0.3328527166729717
0.3842839981525074
0.4455045528111145
0.5199801843738432
0.6314790931271747
0.7513575582857255
0.7610028765745115
0.6428593633774025
0.4247785315930603
0.2392580092272193
0.2164180120434458
0.2091471057194713
0.2065794622354367
0.2062241892174419
0.2091313262059683
0.2168165158548029
0.2312893765910755
0.2564278475391293
0.2925506554553091
0.3374409360337473
0.3900669889759218
0.4522913798819177
0.5293247832062874
0.6446847082401761
0.7652123503917481
0.7690106206295356
0.6429828234493828
0.4201260174649013
0.2363180161693784
0.2156515899683277
0.2086873192610479
0.2068372614275757
0.2068025207510076
0.2101142608168413
0.2181191378193599
0.2328837802711569
0.2582533019715804
0.29537170097708
0.3409844379993162
0.3943988578580213
0.4579523918895073
0.5378061164013135
0.6549458919554114
0.77619316188215
0.7763772550892665
0.6406771120983894
0.4142263861701617
0.2326197672355041
0.2150526528031701
0.2081457310023627
0.2068805774847321
0.2073694493448189
0.2108922124308177
0.2193577154440452
0.2348118974425065
0.2604041223880592
0.2981092239124225
0.3442815096432747
0.3983667846240107
0.4637657629407876
0.546151914555609
0.6650096796427776
0.7851970775540946
0.7797286110152274
0.6409421816230535
0.4130473304766808
0.22947411938651
0.2148269436327092
0.2078405112315335
0.2067653454905912
0.2078896527827581
0.2115752449405337
0.2199597907641782
0.23626686798681
0.2624228103086898
0.3011150784215633
0.3475334956610647
0.4022962731158546
0.4695898930657406
0.5553866867589549
0.6752809011416655
0.7890715516872043
0.7796103368751566
0.6389843581209161
0.4127162465807359
0.2280878603584549
0.2143899386222304
0.2077512947026351
0.2067392411527267
0.2078914320702587
0.211975606462456
0.2201282659232011
0.2366848785314167
0.263452607238035
0.3035137029064829
0.3500592864754626
0.4052709396070157
0.4742028117104599
0.5639121954752065
0.6858522987447212
0.7904045127955175
0.7768087804689406
0.6329684869581685
0.408714506276673
0.2279737454874336
0.2139276019677697
0.207703824669007
0.2068086838874875
0.207748530537897
0.2122583473206556
0.2204986861624212
0.2370212360449789
0.2639082538001484
0.3046086435122743
0.3516823221078446
0.4070650305138142
0.4771768077091936
0.5693292735083189
0.6941543809670484
0.7922366645704377
0.7714299152743613
0.6288159331015392
0.4065452194859892
0.2281035805994274
0.213933319277394
0.2080657778676205
0.2072077691091759
0.2079448282618588
0.2126890091747447
0.2212816987814034
0.2377839948515927
0.2648877303695502
0.3061493114609101
0.3539535533769729
0.4090342917306637
0.4802479467232606
0.5740426425249789
0.69872894600504
0.7913174884192333
0.7644936298324725
0.6236308642420485
0.4041246331230514
0.2282797722276939
0.2137500328190958
0.2083376958351713
0.2073630223792907
0.208207805507917
0.2129177460355547
0.2219974675202647
0.2389000362538912
0.2660682355107146
0.307966315186899
0.3571069541813236
0.4120941389269236
0.4834684817412372
0.5778737210836092
0.7010924042301394
0.7914838569128516
0.7621492517139408
0.6186245628401633
0.3999736367837488
0.2276294398914242
0.2134706018286483
0.2083195529874105
0.2071000646358683
0.2081386991733129
0.2130663618938016
0.2226774334608181
0.2399000169930304
0.266753245184059
0.3084375304750076
0.3591227064348737
0.4149590546179577
0.4854873105919519
0.5795319675411436
0.7050028511404965
0.7962445464094384
0.7629392365555576
0.6154119374600073
0.3966740240346153
0.2256227063882984
0.2139033540009776
0.2083961285330695
0.2070750339736369
0.2080383140936683
0.2130738909762214
0.223282970296695
0.2404308747242648
0.2676429907969301
0.3097170026096689
0.3613482127017331
0.4175968730029444
0.4882317627346174
0.5820495894187518
0.7083943138903104
0.7949889640875497
0.7577647131790965
0.6121204223221861
0.3950324447216903
0.2248423903309262
0.211303415247846
0.207595519762045
0.1997860659644329
0.1911366872909808
0.1850389183203367
0.1794926205810603
0.174038430802853
0.169539568148165
0.1648991315684496
0.1603444525719499
0.1564979214962693
0.153745165903911
0.151960277681394
0.1504992870129029
0.1500381202016047
0.1501216892697143
0.1505314259786045
0.1512096095269872
0.1517696624071418
0.196826882360227
0.1916895301177616
0.1837198466778229
0.1775855535476827
0.173267326715816
0.1701391061347026
0.16795622297005
0.1658759823751465
0.1641428858810235
0.1631762885873497
0.1630540208285143
0.1642735945237233
0.1662664105978219
0.1683237389528132
0.1710628023113397
0.1738588605259901
0.1763894654910801
0.178882990135521
0.1806201303331471
0.1870973731142531
0.1824263194486298
0.1759607515289786
0.1728466847167361
0.1708628596178595
0.1696981815867504
0.1693906158344377
0.1696873064400108
0.1704537721178254
0.1718388783596109
0.1744122888107652
0.1777347947526361
0.1812661431522964
0.1850135989063362
0.1886613848542175
0.1918617606743591
0.1940244841183386
0.1953330632394794
0.1960023546476528
0.1814240564514054
0.1785415499574326
0.1745908519020014
0.173235284716378
0.1720983065350171
0.171988167744617
0.172420015990009
0.173341613857676
0.1748668432779842
0.1765613115468603
0.1793923863416403
0.1826798831491927
0.1864744133012035
0.1901417495293237
0.1928523226577543
0.1951271350396342
0.1965378035225383
0.1979514015834304
0.1997559133114107
0.1794260947567965
0.1774809126416652
0.1746009395384051
0.1737205677512718
0.1731863742356128
0.1736840562465028
0.1740971746646087
0.1747809615050635
0.1765894352444541
0.1787483765333921
0.182068783766489
0.1859318147737433
0.1904489330450759
0.1953143521820788
0.1996583425115083
0.2038597696299387
0.2080605489590453
0.212819820498305
0.2180538413536256
0.1795060208055497
0.1774575868526267
0.1746675489198311
0.1739839062746388
0.1739052024377983
0.1745930476539462
0.1750199412698486
0.1764085161452912
0.1790812354709651
0.1824837271336239
0.1872218307546716
0.1931986745763695
0.2003576171882573
0.2078798194339852
0.2153523737746532
0.2227383511403194
0.2298060412202159
0.2374568596245755
0.2457665388461397
0.1811015304730806
0.1784473825429839
0.1754673813967171
0.1751812525275498
0.1750280067090884
0.1755985305651478
0.1768555797736935
0.1794652054300154
0.1834061790435582
0.1885652136048675
0.1955288516758509
0.2047279464614504
0.2151806505482299
0.225539474381735
0.2357396889417093
0.2453816156459765
0.2545160188805602
0.2640268217130547
0.2736696398168222
0.1831108154909655
0.1799068221854179
0.1768764051033693
0.1766579699103917
0.1769322992337857
0.1779426125254193
0.1802862627539153
0.1838271974580152
0.1890875782773679
0.1963858727290341
0.2062185974571298
0.2188940455698108
0.2317987104746301
0.2444132618127035
0.2560393229887964
0.2667873062449238
0.2772940541028593
0.2879574251845698
0.2983153779396951
0.1861692259572977
0.1825090463787003
0.178764857994691
0.1784947865678273
0.1790944667802763
0.1806978287986452
0.1839454490575175
0.1891239192219685
0.1962549801987645
0.2054568391034345
0.2178892946098548
0.2331015821373373
0.2480066745892905
0.261911804173113
0.2744453372238927
0.2860648917343155
0.2974106755613617
0.308655436060767
0.3192164307456068
0.1891406745194636
0.1846502686649744
0.1811591596525334
0.180734487127511
0.1812022286204518
0.1837828171562168
0.1880209001272567
0.1943446401737812
0.2029537037092438
0.2148298819234793
0.2298742945233688
0.246464232399596
0.2625752844216751
0.2776124166227674
0.291279520748948
0.3035764381562224
0.3155504578710362
0.3268378036841756
0.33712956382089
0.191254730199511
0.1863142520072012
0.1830929211183025
0.1828428967061192
0.1838245813341447
0.1868967590781433
0.1916248755921566
0.1991162967959197
0.2097075633879915
0.223600551234512
0.2408101943760174
0.2592789739291971
0.2763515043660222
0.2923731885776015
0.3068252473323975
0.3197260438042102
0.3319674976026945
0.3435642591379706
0.354365884646809
0.1935904901454247
0.188403659093145
0.1846356602991301
0.1846670163584824
0.1860931472126837
0.1893862478640581
0.1949043177816128
0.2042669100906796
0.2169995545515698
0.2323702754839434
0.2518451421820802
0.2717673352687506
0.2896537449126747
0.3062877943466897
0.321214118311149
0.3354580330820372
0.3482882747394008
0.3605608940358251
0.3729500677673287
0.195770106161263
0.1901769313475979
0.1866993951527392
0.1864338461120185
0.1882350125453245
0.1921637137568494
0.1985996329614708
0.2090854176555981
0.2239749865987073
0.2416949246559568
0.2619277446923537
0.2832712015984541
0.3021449254487376
0.3191319409443929
0.335375343382557
0.3507000730804031
0.3650617473895151
0.3790787566435556
0.3934783456667469
0.197763018663584
0.1920692408351827
0.1889087539130805
0.1883517358973245
0.1904476780712523
0.1948133994236478
0.2023326155642846
0.214496490876432
0.231304740037129
0.2507141600022922
0.2715266553555005
0.2934983978991073
0.3136009424951842
0.3315544111621275
0.34929927229589
0.3665461523260578
0.3828334087754377
0.3993743990106742
0.416363218611085
0.2010571417775874
0.1943880055109306
0.1904364314261132
0.1904714243260061
0.192918115907774
0.1976024904491832
0.2062886600664993
0.2197994021170785
0.237308792631102
0.2577543055475576
0.2802962059657876
0.3029125799567025
0.3246248931461405
0.3448316841514755
0.3638662277328943
0.383159314210874
0.402220350469108
0.4220159194888975
0.4443147753444976
0.2043977111211647
0.1965544307097793
0.1923561152532841
0.1926694405459222
0.1953809022285768
0.2007444679849927
0.2101026663339927
0.2247606313697974
0.2427434799362318
0.2644699486358186
0.2884632086740269
0.3125119640460475
0.3363756005370608
0.3587129784509876
0.3795150595890722
0.4002476592482075
0.4226802772901205
0.4485040354922753
0.4799082147776548
0.2061826729510408
0.1980295934472748
0.1949616966151576
0.1948881263824336
0.1975521879006475
0.2033547762231056
0.2136787021125027
0.2298192314910899
0.2488404645439283
0.2716416116877206
0.2966536414690234
0.3229900916722151
0.3484798721486067
0.3721512879870954
0.3953976474555862
0.4191906325915349
0.4459886689936017
0.4806837341356996
0.5219168774780512
0.207279050064748
0.1991479785782001
0.1972146937684298
0.1970848247707534
0.1995047418001974
0.2059761886726573
0.217528189140646
0.2342615122114856
0.2546822445794662
0.2781625733068542
0.3043373752921374
0.3328710918876761
0.3600956848647141
0.386139754599745
0.4121513430241081
0.4405191833841635
0.4740303603966939
0.5210803749810545
0.5659299983240682
0.208772267406064
0.2011053999082571
0.1986762494898209
0.1989190508023691
0.2014327559835905
0.2081954639983972
0.2208827811287242
0.2387495963007152
0.2602620925219065
0.2844767719470895
0.3122892526931158
0.3419503338930819
0.3717986413239276
0.400503547741236
0.4289700632248341
0.4638041569309826
0.5077291272021595
0.5650333600674186
0.5987939982794469
0.2107983655172206
0.2037849739644841
0.200554208194481
0.2006029742226938
0.2032364771181528
0.2103808441898619
0.2234630148560998
0.2421475701233919
0.2650055442885716
0.2907579641138124
0.3209034934196829
0.3524121678106461
0.3839320854439133
0.4149650451498103
0.4469098628161493
0.4892239800529634
0.5472544784792919
0.6069310384953815
0.6169154060545923
0.2131679439146142
0.2060702282649076
0.2024082170088393
0.2020664424889131
0.2049735384634087
0.2127284888554088
0.2262562703271181
0.2452756982280621
0.2686177525244477
0.2959808653339559
0.3285600583955452
0.3628050184925065
0.3958160088853685
0.4302770898596235
0.4687206043756037
0.5200616707234563
0.5902389376006554
0.6479346396928207
0.6115052809813852
0.2152673002933144
0.2074896735323106
0.2039657476663356
0.2037305833546936
0.2065956402285054
0.2146067464892032
0.2287609650058905
0.2484265428557341
0.2723006672627726
0.3013067472387045
0.3357643073280909
0.3722448589805701
0.4073761558372903
0.4454879835328449
0.4906421538667246
0.5547430051927081
0.6370137203631413
0.6881251793193014
0.5648363715689912
0.2172645783446905
0.208743154921071
0.205516324203493
0.2053382313848634
0.2077603215901012
0.2162460359542666
0.2310321884118172
0.2509298662930089
0.2769540130925056
0.3079071277442098
0.3435874137479642
0.3824293262126252
0.4203613312225039
0.4619286397250275
0.51688210840782
0.5952119930550691
0.6808656866733277
0.6879222076893549
0.507365737789702
0.2182612608314794
0.2098181623372328
0.2066001592018704
0.2063006381228006
0.2090469048594276
0.2179450047019893
0.2330138637386007
0.2531578587961174
0.2807420046759431
0.3138312769974926
0.3510807470699787
0.391949616501056
0.4333524299633471
0.4797610200585265
0.5459744568452686
0.6363108077844015
0.7159604460595609
0.6640730722228718
0.4618566297878354
0.2188006172831412
0.2103696355194395
0.207720215263342
0.2073102985792938
0.2105401788734936
0.219601901586201
0.2343041309309603
0.255018253928042
0.2836891222588732
0.318862954728776
0.3591628602653388
0.4016061796081792
0.4456326216959761
0.5004916889928571
0.5769166336685293
0.6713070354990568
0.7377842762641014
0.6485888207236777
0.4164960045155035
0.2197999081467703
0.2110174285040865
0.2085008172787277
0.2082813215504605
0.2118343432535657
0.2205958497108937
0.2353890807810509
0.2571805883043298
0.2871563371429315
0.3237836400323189
0.36636794231038
0.4106458690428285
0.4567589513567934
0.5197025689911069
0.6063941145448984
0.7020773782469255
0.7322378831762251
0.6062132797339894
0.3728119639109193
0.2205659171925126
0.2116294050071965
0.2089410027367345
0.208927640020099
0.2128028161303624
0.2213118995363548
0.2367488487402648
0.2595349002712372
0.2902522196530164
0.3281088665542242
0.3725785742603699
0.4193732608591924
0.4688725922665347
0.5369817262887054
0.6315866336578854
0.7293410390127729
0.7285179097758365
0.5664654278805911
0.337035830319611
0.2207965075738251
0.2116562287206736
0.2091127577348868
0.2093230370759604
0.2131711712661338
0.2223032499887562
0.2380366624405044
0.2610321728061873
0.292386014947569
0.3320011106326524
0.3786168107321077
0.4272685532395526
0.4818606259876784
0.556532574432833
0.6594687650686716
0.7578824077344103
0.7380836706638566
0.547336490138339
0.314240070954858
0.2208696456455788
0.2117882651828196
0.2092113703799152
0.2095564057669841
0.2133385361150409
0.2230570614517897
0.2390257941093101
0.2625594827258506
0.2947326171713103
0.3360983357708484
0.3833323682190224
0.4340827514897951
0.4948662205028865
0.5747651167891031
0.6824217854207861
0.7702801141379122
0.7303819019137319
0.5275824211517515
0.2990195546856224
0.2204228062134421
0.2120284484849926
0.2093520675824726
0.2098144609144452
0.2138584962979356
0.2234970640738818
0.2399312698260732
0.2646012183795905
0.2969843973354176
0.33896959808737
0.38794449139841
0.4428213557942322
0.5091404851207483
0.5912140307840109
0.7013232607910226
0.7655533401626421
0.697000650668639
0.4973015641675365
0.2844052096707553
0.2193093072054592
0.2119370291263466
0.209382397751413
0.2097757233257293
0.2140903072252611
0.223606147733922
0.2407120123423418
0.2665559048737813
0.2994963323501815
0.3416690349901408
0.3923955969436155
0.4499595999305986
0.5183244093684752
0.6059310759756107
0.7221275615881885
0.7627204813703171
0.6669234986251124
0.4692028295041713
0.2711541191351201
0.218617781536163
0.2117399043159528
0.2096870024935279
0.2097888014692545
0.2142015519564407
0.2239981965899712
0.2414969319090318
0.2678769860791025
0.3023972256215595
0.3460245719898631
0.397250203430124
0.4555289280990381
0.5251113109163071
0.621253815199699
0.7422506637660158
0.7685123540685119
0.6580189175441776
0.4519984219863525
0.2595401821691233
0.2183351705038356
0.2114172575954973
0.2101325256433817
0.2100756081708262
0.2143123763667802
0.2244525633537059
0.2416342028750547
0.2682589954715406
0.3041914104644162
0.349092160105784
0.401538367476369
0.4617094294903743
0.5342351940473448
0.6366398297564274
0.758059138690431
0.7782895190196408
0.654966223446707
0.438632400043866
0.2528075502538414
0.2177999909701076
0.2111048341447739
0.2102569815572941
0.2101798459825206
0.2141628175533546
0.2246183953442549
0.2419354036701575
0.2684379504386601
0.3050627559472636
0.3504249533876652
0.4034390586166889
0.4667079448315784
0.5418780023654399
0.6487849051165286
0.7679724149355112
0.7828991023935978
0.6535407317500469
0.428602437029185
0.2461169968974206
0.2174511072385794
0.2108559992139717
0.2099420787270153
0.2102556274580626
0.2143173611244236
0.2246424149970849
0.2421611660531681
0.268686377815904
0.3065281827055939
0.3531843182338962
0.4067198535205082
0.4714647678171687
0.5467587431097136
0.6573774628219445
0.7763678695510007
0.7872149021674467
0.6528513667365101
0.4212081878521557
0.2395788097594587
0.2173690243228569
0.2106678988679261
0.2099565115899496
0.2106023727743524
0.2144677679800527
0.2245870132814272
0.242216529396583
0.2691159714079795
0.308357094265933
0.3558596632658363
0.410346390846511
0.4748194239652696
0.5500371284260817
0.6653081457254366
0.7871987803941983
0.7918423644500057
0.6476164393765199
0.415896701510255
0.2370207373201565
0.2175178255485672
0.2106141545634675
0.2098407558297284
0.2106545674193483
0.2140343216884293
0.2244337169371685
0.2422925610614262
0.2692698806903419
0.3093607847085527
0.3568649476683923
0.4114595474013575
0.4775979670088633
0.5558843107814085
0.6734058495918831
0.7939804041981778
0.7938638645376173
0.6444080911634869
0.4129857653283686
0.2361058439477326
0.21747473484391
0.210025843392584