/*--------------------------------*- C++ -*----------------------------------*\
| =========                 |                                                 |
| \\      /  F ield         | OpenFOAM: The Open Source CFD Toolbox           |
|  \\    /   O peration     | Version:  2112                                  |
|   \\  /    A nd           | Website:  www.openfoam.com                      |
|    \\/     M anipulation  |                                                 |
\*---------------------------------------------------------------------------*/
FoamFile
{
    version     2.0;
    format      ascii;
    arch        "LSB;label=32;scalar=64";
    class       volVectorField;
    location    "0.0081";
    object      U_LES;
}
// * * * * * * * * * * * * * * * * * * * * * * * * * * * * * * * * * * * * * // 
 
dimensions      [0 1 -1 0 0 0 0];
 
internalField   nonuniform List<vector> 
13597
(
( 17.818261090127905 1.94414874033014 0.1384338723322582 )
( 17.823068307545647 1.98985587682342 0.1389903057606789 )
( 17.842592166266744 2.082398094983454 0.1387613683026256 )
( 17.87408470352144 2.201431449142451 0.137305484386799 )
( 17.90186660906931 2.3038392682925504 0.1355951885554976 )
( 17.921027884837834 2.387640954674529 0.1343860840790471 )
( 17.94331965461535 2.4697772890080074 0.1325899893264311 )
( 17.969008379639615 2.558780699109079 0.1306460709615965 )
( 17.996841938108503 2.64847334685102 0.1282259642146282 )
( 18.02667904480311 2.7373878147438737 0.1257217506989288 )
( 18.05820658611891 2.8355698632647344 0.1236491267163357 )
( 18.095136455191117 2.934010472902883 0.1206147552055849 )
( 18.135404840481325 3.030359513790958 0.1177269567320833 )
( 18.17485875447568 3.1326482658672536 0.1152292529680751 )
( 18.213012408324488 3.238175315424612 0.1133753279740078 )
( 18.253803276148023 3.3419372127009748 0.1127504057379317 )
( 18.298949180020188 3.4402956558425792 0.1122739384841721 )
( 18.345159061209653 3.5379630987201307 0.1113993516141727 )
( 18.39208746697047 3.640268842329599 0.1094478325362014 )
( 17.695156585698818 1.9895723909778047 0.1576327057848078 )
( 17.68295124895313 2.0488388143860417 0.1619007961412169 )
( 17.6839164139316 2.169287752301632 0.1673997453524056 )
( 17.6903334968746 2.306434835219092 0.1716490171203562 )
( 17.690785326121453 2.413296361530785 0.1753378888686073 )
( 17.68772297895669 2.5127439790851755 0.1791831983503625 )
( 17.689125060090618 2.612696097826773 0.1811422004216124 )
( 17.690857992180643 2.7177778091280334 0.1827782046044189 )
( 17.695024793047015 2.8248699356196165 0.1831136679746888 )
( 17.70000949428877 2.9314433412039484 0.182582608889723 )
( 17.704751231706318 3.049080526951156 0.1811915623821728 )
( 17.708874737701745 3.17427391093873 0.1780820318922349 )
( 17.712077443697307 3.299903556138658 0.1740869596276747 )
( 17.718396399484835 3.429123794042288 0.1686943221908807 )
( 17.724498021556872 3.5561735500235563 0.1624240105067597 )
( 17.73199558993848 3.675594303048844 0.1561963911337697 )
( 17.740925778886567 3.784656277016476 0.1498697863531904 )
( 17.74936125328491 3.89536393848374 0.1428135080085159 )
( 17.76283403008597 4.005253831525715 0.1348883616447717 )
( 17.557409007778492 2.0295267376383035 0.180318337339956 )
( 17.521186269744657 2.1003845482891683 0.1902048426240421 )
( 17.49665943024307 2.2389018442195248 0.2007157189939634 )
( 17.472252271395615 2.38746810862623 0.2093385742762292 )
( 17.442234205637103 2.4998593944772445 0.2155601603154164 )
( 17.416292284876437 2.611376426288244 0.2196768837609486 )
( 17.3938602739389 2.726204091972481 0.2204628178037667 )
( 17.364334157230076 2.842796120040017 0.2196832697544072 )
( 17.33769840591204 2.9648665527138105 0.2160954403364108 )
( 17.314415477280892 3.0955420861585914 0.2101687884855528 )
( 17.287790749191664 3.232836151595292 0.2024470002910573 )
( 17.259803768652947 3.379852294600897 0.1922097817832403 )
( 17.233105681084783 3.530838875378509 0.1799031271860463 )
( 17.209781305531244 3.6754172047889657 0.1663489204294898 )
( 17.189371350449985 3.8073511758074674 0.1531260086741634 )
( 17.171861717397295 3.9243974137548583 0.1405851501976366 )
( 17.152412532048025 4.029702791010516 0.1285189888161064 )
( 17.131979983557596 4.135374069967246 0.1160915669934243 )
( 17.120724846965786 4.244320680013383 0.1036098300020303 )
( 17.400144789133453 2.063015807771485 0.2064359100552652 )
( 17.338799909598976 2.1432542343914887 0.2204012581705458 )
( 17.288318982253614 2.2895802444479947 0.2319179662745338 )
( 17.23267459516518 2.444292617865189 0.2394059000212106 )
( 17.17066377145302 2.5646388145329118 0.2430088142263739 )
( 17.11496151913118 2.683122163935469 0.2424600110035526 )
( 17.057934176513065 2.809871620155519 0.2375343413752101 )
( 16.99623554886507 2.93946461148167 0.2294202796066776 )
( 16.94243125419439 3.074629724812035 0.2179417694205048 )
( 16.892126798536435 3.219398610252811 0.203269174956377 )
( 16.836427211195502 3.3728065038293096 0.1855697492421351 )
( 16.78633296283179 3.5322674274625703 0.1658228689315989 )
( 16.741514693672126 3.6907109001481313 0.1455867777544036 )
( 16.695212037370226 3.842560415259763 0.125272771805543 )
( 16.650072585886086 3.973417739697196 0.1076196590853192 )
( 16.608781722747565 4.085254821108892 0.0925911621646852 )
( 16.56873918385746 4.186937971980665 0.0791329092375576 )
( 16.52653510024921 4.289993268385125 0.0661452279930688 )
( 16.48916610901158 4.4039135559823 0.0529136465166886 )
( 17.233095687385244 2.088223029814924 0.2326741079404099 )
( 17.151740699698433 2.1764211999819443 0.2456324964001459 )
( 17.074271989069583 2.329760807369881 0.2538927275620004 )
( 16.986705026717303 2.485834915818216 0.2560365013676386 )
( 16.89646421263116 2.610554247738326 0.2525448546028356 )
( 16.812276207138996 2.7345282581375936 0.2442557710506128 )
( 16.72419306621849 2.8693545359816794 0.2310666903274492 )
( 16.636659599554584 3.00801541079344 0.2138589579633783 )
( 16.55796272948673 3.1485686126522863 0.1941784646728816 )
( 16.480570762000465 3.299603186129725 0.1718503966878649 )
( 16.40115805059277 3.4654101297090865 0.1469001597773654 )
( 16.327151078618392 3.634811596814684 0.1220815588985852 )
( 16.25659561711404 3.7988482718497134 0.0986897557669094 )
( 16.185137808077297 3.9528689516007938 0.0769546696417781 )
( 16.1142464940374 4.079648374967264 0.0592165606207269 )
( 16.046449165078407 4.19346095022161 0.0444668282129796 )
( 15.98293258872808 4.302323535682668 0.0319528600790113 )
( 15.920763465037918 4.411230911064688 0.0208367255156264 )
( 15.860372542916576 4.533404404629677 0.010104838639315 )
( 17.06536719789299 2.1009305694169567 0.2535955628483882 )
( 16.964091329224296 2.1964841940593747 0.2623211474707924 )
( 16.856604454390677 2.359098155194815 0.2635814883566478 )
( 16.743298845009566 2.515005699701025 0.257636480036213 )
( 16.63198332558799 2.6414825634145798 0.2459063085153059 )
( 16.526116852195006 2.7704503632112143 0.2293366969813757 )
( 16.419292767567466 2.9064039213963517 0.2085182055874557 )
( 16.30994960493927 3.047124210222793 0.1842956906715128 )
( 16.200826430253063 3.1931113867201275 0.1585179080284971 )
( 16.09451102652722 3.356415115149036 0.1310008690970724 )
( 15.99402483863084 3.528894892597203 0.1040016559391953 )
( 15.893330716545991 3.701523549536077 0.0790090367154886 )
( 15.797168847465418 3.870672426933696 0.0559795906122455 )
( 15.705477995291712 4.024473995653378 0.036552285016782 )
( 15.61325518646462 4.153431449039763 0.0212403525662381 )
( 15.528574494579152 4.267635694894548 0.0093343829483477 )
( 15.44682712932709 4.378200005770133 -0.0004418449444736 )
( 15.365860421772368 4.49032101496602 -0.0087471741178503 )
( 15.287176556346145 4.617117309259634 -0.01564292284719 )
( 16.8930633409832 2.106041427553796 0.2675334581343168 )
( 16.774312779762866 2.208965263700692 0.2703413582071327 )
( 16.645102112374534 2.37622883051086 0.2625689996483653 )
( 16.511575034520668 2.528786917700112 0.2468961438801008 )
( 16.383393910723598 2.654564516236348 0.2275974582182043 )
( 16.256205469757585 2.784167702346792 0.20433052139561 )
( 16.12971018556581 2.9219561467388777 0.1779509257563976 )
( 16.00106410155848 3.0664326019766603 0.1494999545794742 )
( 15.86731423142608 3.21605826955234 0.1208732574768641 )
( 15.742532500504344 3.383703582513769 0.0932457507104879 )
( 15.619827423316268 3.5618147306300245 0.0668433617204451 )
( 15.493644951330982 3.74095527625962 0.0430686956967036 )
( 15.376881719018058 3.909984113692391 0.0234063138245483 )
( 15.266049033283023 4.061426692685915 0.0073894881367197 )
( 15.15558475629265 4.195442456312588 -0.0049850116791887 )
( 15.052185042346348 4.308852240546746 -0.0134074322437329 )
( 14.953782737095784 4.4183066332073615 -0.0198990465611829 )
( 14.855120323954417 4.536386601665585 -0.0250825421101245 )
( 14.759051881495784 4.667908652383149 -0.0289314092290997 )
( 16.73015011137558 2.103923056925479 0.2736263669801205 )
( 16.59577480513309 2.208546991892129 0.268970649656687 )
( 16.449309116708903 2.37534924582411 0.2521136008816636 )
( 16.298506964625965 2.5251820143118677 0.2284550005353325 )
( 16.152219943887182 2.651118778956432 0.2026649859543968 )
( 16.006192720953976 2.782667170519012 0.1751155691182636 )
( 15.85880673953809 2.923831469278845 0.1457396740494418 )
( 15.71255799050275 3.0681754981940124 0.1159522193478453 )
( 15.559044649889486 3.219773529856323 0.087097982093607 )
( 15.414645036138856 3.3930588303359515 0.0607486878284419 )
( 15.268802523011075 3.5763345747751094 0.0364646397113001 )
( 15.123772463873616 3.760571130029367 0.0154198151976088 )
( 14.98818435668119 3.9310758832229817 -0.0005016726515184 )
( 14.854416525538904 4.078098835545404 -0.0126985082991143 )
( 14.730846273195093 4.206501161404991 -0.0212452740717582 )
( 14.610928803590328 4.321470473088208 -0.026939948421057 )
( 14.495209417854806 4.43631888865276 -0.0309681287208726 )
( 14.381334948050457 4.561885703041462 -0.0335702488403398 )
( 14.27019345159534 4.699585068058492 -0.0352962958967562 )
( 16.577669118405993 2.089176746781577 0.2710673586522491 )
( 16.428220440477006 2.1912249245916 0.2580290648945893 )
( 16.264973848486783 2.357248524600586 0.2337933282574774 )
( 16.10103079292249 2.504997942599195 0.205500442569967 )
( 15.936384049356226 2.6343376662550697 0.1754368572286875 )
( 15.775842663677858 2.765579695895435 0.1456525832461038 )
( 15.61306418699245 2.9047451540762035 0.1155506519893915 )
( 15.451079326066017 3.054198218792082 0.0865963341368131 )
( 15.28336854145812 3.21227622471305 0.0598086382460709 )
( 15.109509058612298 3.387310332189448 0.0342038333769445 )
( 14.941699243760851 3.5736866247337424 0.0128030863523324 )
( 14.783099461474492 3.758037831297852 -0.0040573685259035 )
( 14.625522757009724 3.9297398157858527 -0.0170159619019042 )
( 14.47365752742161 4.077572645655828 -0.0259074170784984 )
( 14.337670789727852 4.203170411202308 -0.0314849289462948 )
( 14.2021720744425 4.322030460196173 -0.0353984566688737 )
( 14.069076811912511 4.440929294573555 -0.0375184352365991 )
( 13.938806194288237 4.570412534056252 -0.0382586876104981 )
( 13.81009543442801 4.714624043948472 -0.0379896514312482 )
( 16.43171767255305 2.06985452122742 0.2619958507038905 )
( 16.27081496935035 2.1749902000340846 0.2411340005653069 )
( 16.09374263472593 2.337799643771901 0.2114552789156643 )
( 15.916410910054186 2.4779786010474862 0.1806710175332082 )
( 15.739977081102818 2.6088315235275243 0.1492707114555308 )
( 15.565940321404764 2.7365128940312085 0.1185821733134537 )
( 15.38416699290654 2.870739126395436 0.0885030632138551 )
( 15.198882620519466 3.022900337170757 0.0602455200128319 )
( 15.016703159345628 3.1831389566410158 0.0359549802166702 )
( 14.82643069712458 3.360015339641438 0.0139733324929737 )
( 14.641438319081669 3.553542095189973 -0.0043315790155601 )
( 14.466636597769538 3.742551739513319 -0.018099348492238 )
( 14.292672633307156 3.911970733582341 -0.0279985782032836 )
( 14.128910368726364 4.0609491892354725 -0.034197389432353 )
( 13.975212666650055 4.188947240333514 -0.0379250877386142 )
( 13.821357098422515 4.3087866372736325 -0.0399521169127907 )
( 13.668028426897694 4.429884392455467 -0.0403606364603456 )
( 13.519544776178222 4.562314607626012 -0.0401408876524801 )
( 13.375134582045362 4.713959088917407 -0.0396672832543822 )
( 16.302338071057147 2.04752071217211 0.2476220590976574 )
( 16.133830871029303 2.1545141081404573 0.2220941365932593 )
( 15.936924098179386 2.312706633233356 0.1886457175187152 )
( 15.749108804105626 2.44408703070568 0.1561232112877948 )
( 15.562014362650862 2.570561714104448 0.1246253215992162 )
( 15.369758728958432 2.6968407877208747 0.0937854463401229 )
( 15.170742760804568 2.8269870156274237 0.0644469909508073 )
( 14.970207223271068 2.974827789551972 0.0383877862096339 )
( 14.770570474660298 3.140917291599691 0.0165061991698414 )
( 14.568934768508887 3.321915001209688 -0.0016176636576341 )
( 14.367818461300349 3.5173842867375003 -0.0167501630246729 )
( 14.170430925649686 3.7143712561677233 -0.0281527834274029 )
( 13.98576364485674 3.883042915004205 -0.0351511603678446 )
( 13.80991039973018 4.03280367483771 -0.0392130503345861 )
( 13.634356354565146 4.164808813598229 -0.0413260841843555 )
( 13.458902850682698 4.28543635470373 -0.0422680585209765 )
( 13.287066733908022 4.410129255820888 -0.0426849780520565 )
( 13.124892514081736 4.548012323859873 -0.0427893324132931 )
( 12.96558570712682 4.708830580390364 -0.0423823605517785 )
( 16.1829006266062 2.0177753186130425 0.2281487773459368 )
( 16.002232314823413 2.124505986445512 0.1998854139968158 )
( 15.789746309409812 2.279880367737946 0.1654299634262996 )
( 15.59301997568169 2.402744020567765 0.1328558922909873 )
( 15.39224898602018 2.5215577976413748 0.101726768946916 )
( 15.183501105087744 2.647285401127186 0.0714534533584305 )
( 14.976472215006398 2.7823540724169407 0.0444801177238696 )
( 14.763485581700817 2.9317760434115603 0.0212328665362237 )
( 14.547266782006853 3.099976688853954 0.0017916251509629 )
( 14.329862239123848 3.281865376566424 -0.014228459541603 )
( 14.11255667462371 3.4759401487425583 -0.0263252393632498 )
( 13.897351255023796 3.670634118500908 -0.0347411652571743 )
( 13.69457965788967 3.844723884646216 -0.0400115412167566 )
( 13.50007037024975 4.002504236755057 -0.0429119096403116 )
( 13.303932219660856 4.136757570877176 -0.04428092017275 )
( 13.11282220281125 4.256153713408738 -0.0451852641218954 )
( 12.929784457578805 4.384066026501453 -0.0460144821557861 )
( 12.755159825800185 4.5337858207074735 -0.0459834283107245 )
( 12.581984576989443 4.70659347221391 -0.0443375205093593 )
( 16.068736626158056 1.9771007733519057 0.2062737646799598 )
( 15.877984762219194 2.084047426357067 0.1761515695403935 )
( 15.657851128740344 2.2372726184944014 0.1424878680733921 )
( 15.448360867873967 2.3581889614128837 0.1107122699056088 )
( 15.236617968538903 2.4769529639315078 0.0809164989363464 )
( 15.017008042212794 2.602083041892314 0.0527975584030378 )
( 14.798408030259012 2.737062355647723 0.0285406246887362 )
( 14.569056345893571 2.8846637321349604 0.007483801385696 )
( 14.335565378300746 3.049727183368562 -0.0098348930601253 )
( 14.10556591129521 3.2358343176640147 -0.0234866207915501 )
( 13.87144130314618 3.437571128744392 -0.0335072679557095 )
( 13.641025229977515 3.630797877661343 -0.0399097039237791 )
( 13.416603224423085 3.806986731937892 -0.0437270443585508 )
( 13.19741806408407 3.967131446469133 -0.0459552766178984 )
( 12.98896358043045 4.097579349508258 -0.0476784291849098 )
( 12.79159235061936 4.22019753530242 -0.0484624644835881 )
( 12.597208995592174 4.357464513534024 -0.0483243393358333 )
( 12.405520513488815 4.517421389859873 -0.0467277740137204 )
( 12.210204007884371 4.704736730544613 -0.0430229371222169 )
( 15.964225918890229 1.9276502744292827 0.18369429958784 )
( 15.769948236465645 2.0357977570223182 0.1539102774633043 )
( 15.537812150711442 2.1875167023557056 0.1209764874612307 )
( 15.31615229268388 2.3071361056162583 0.0903909784879449 )
( 15.092881869209586 2.4260883636062807 0.0626362923327025 )
( 14.866651744861915 2.547720043519289 0.0373535259226334 )
( 14.635000947068932 2.6803783071927114 0.0151945533581362 )
( 14.396301349329947 2.827026034615888 -0.003311382890718 )
( 14.146779234073136 2.991192730365233 -0.0184511034144857 )
( 13.897431725370277 3.180996060342866 -0.0304014996436889 )
( 13.645574626230072 3.387667955664161 -0.0392024906349198 )
( 13.39486346359636 3.588352713339145 -0.0445105506686182 )
( 13.152650040161127 3.769229449356651 -0.0469469588868937 )
( 12.920273288087104 3.9229352322182502 -0.0487483454948341 )
( 12.70074802797527 4.052450973633362 -0.0505339099306998 )
( 12.488702391018302 4.18641702542529 -0.0504964561876942 )
( 12.27921748715862 4.339596705252915 -0.0488354675677495 )
( 12.063274320024805 4.504514705480776 -0.0453554372062743 )
( 11.836996138477495 4.699042790096041 -0.0400971331449767 )
( 15.871097867856422 1.877703084579376 0.1610235850093584 )
( 15.667263212969326 1.9869902258361567 0.1324404480525698 )
( 15.41497145388418 2.138665564996042 0.1005911015597151 )
( 15.184685648079457 2.2509718304609425 0.0719263378339895 )
( 14.95586448171568 2.365502278265648 0.0465855560047091 )
( 14.724000354438049 2.4858172768585693 0.0237827822413191 )
( 14.479909613526456 2.616586782068316 0.0036430514085549 )
( 14.227081449302048 2.7657553064641145 -0.0128858822281819 )
( 13.96740326921546 2.9303665271297508 -0.0262564464111113 )
( 13.701483355570703 3.118497713718078 -0.0367663547190218 )
( 13.42814975348768 3.3293286946262723 -0.0443945382519573 )
( 13.155098055230958 3.5339407108902154 -0.048113598882139 )
( 12.895014155177766 3.720472465827082 -0.0496696100778648 )
( 12.655466564440664 3.873821920468642 -0.0514860061309466 )
( 12.426602987185962 4.007354782192872 -0.0521649652440035 )
( 12.198094431712274 4.150665492656674 -0.0510142608496529 )
( 11.963494806697645 4.312782313811808 -0.0482499486523306 )
( 11.719860125811664 4.491716339326502 -0.0435434986782541 )
( 11.48732682714077 4.711652029369354 -0.0387649610712417 )
( 15.785709517273874 1.8281559719018288 0.1396642970705073 )
( 15.571570356218691 1.935815379632699 0.1121361154218524 )
( 15.305852307132518 2.0845651434134345 0.0826615055164494 )
( 15.06599741708674 2.189861125637375 0.0559341910722197 )
( 14.830875870959186 2.2967192763916047 0.0324808685202682 )
( 14.59073729360625 2.4214351716108986 0.0123781323415134 )
( 14.33616937552832 2.548760538966338 -0.005555377566468 )
( 14.066520453032318 2.693280271548678 -0.0206875165274996 )
( 13.792602380307423 2.864880327778634 -0.0327031917866012 )
( 13.51188222593484 3.052103229853447 -0.0416451599811592 )
( 13.214026185184904 3.26994783362666 -0.0478695298714362 )
( 12.917729427736507 3.48288722360327 -0.0509860921076559 )
( 12.65030698681995 3.665145141810632 -0.0525033199910808 )
( 12.407105940654011 3.81906057268904 -0.0530072112479024 )
( 12.165683088512075 3.961541672981803 -0.0523350004476839 )
( 11.916398381698864 4.112736192942655 -0.0508725656425537 )
( 11.653583243091642 4.282277552370998 -0.0469856336965448 )
( 11.392456546904803 4.486226343835445 -0.0431806708597175 )
( 11.187024460749102 4.759777920564407 -0.0402014859677937 )
( 15.707497161654322 1.776706893094485 0.12043368748255 )
( 15.479968933659066 1.879989606303689 0.0936832832715379 )
( 15.206250196839354 2.027731766868818 0.0671078102299268 )
( 14.963796871145146 2.12963605876303 0.0426814282916552 )
( 14.719794783520882 2.2331680164218404 0.0212615084181038 )
( 14.46502592531778 2.355742445450318 0.002884350782348 )
( 14.197673302575833 2.477906942791261 -0.0138195312645396 )
( 13.922461740710512 2.621453001704368 -0.0270691778864657 )
( 13.632779845549118 2.7973490626886885 -0.0375555532071971 )
( 13.329176350593531 2.9823022053719703 -0.0455294533818385 )
( 13.020301272241706 3.1974948306127797 -0.0502630995866351 )
( 12.710197114938348 3.425992195091676 -0.0528529095754451 )
( 12.432422078348532 3.610825228176859 -0.0536420397798158 )
( 12.175195370113489 3.762516371214224 -0.0527265329888152 )
( 11.911395099146986 3.9134456902292554 -0.0521857514875381 )
( 11.631621489175176 4.0704884083260655 -0.0503732050760025 )
( 11.350917510116952 4.258063137470854 -0.0467999869184199 )
( 11.103498112863186 4.502784413359881 -0.0450971677380575 )
( 10.937409446686956 4.833528551144975 -0.0411557765704806 )
( 15.63102126944033 1.7234676329398666 0.1017766875881151 )
( 15.394359050306836 1.8228380635117896 0.0769506621026494 )
( 15.112752827660309 1.9659709046935725 0.0528070545389357 )
( 14.86930842505128 2.0643983130466768 0.0311531275025222 )
( 14.618641925795467 2.1701325690337607 0.0118248717106631 )
( 14.350798246283675 2.2896668837653578 -0.0054103617912474 )
( 14.073890486455866 2.4029674238974548 -0.021121377457163 )
( 13.787749674026903 2.549553106696629 -0.0327775275511902 )
( 13.480834529352922 2.7297128423782597 -0.0416408513183952 )
( 13.160060936518468 2.919364389251477 -0.0483546739733603 )
( 12.83293755477002 3.1294313616873195 -0.0521586856944129 )
( 12.509966677144762 3.349393804627516 -0.054031156393531 )
( 12.220859465052149 3.5412530017966324 -0.0539110948906169 )
( 11.94264552872493 3.703903090349141 -0.052516667653607 )
( 11.65331530091911 3.854585632556124 -0.0515810011823192 )
( 11.354269110371709 4.020864404751907 -0.0491569634215922 )
( 11.068936102730854 4.238115335295761 -0.0474215555021289 )
( 10.855405436926253 4.538871888162728 -0.0461678859074029 )
( 10.688978421430877 4.906841198937223 -0.0402300795243695 )
( 15.560754160509129 1.6679220915011617 0.0843537590290924 )
( 15.317730190170694 1.7628935759848814 0.0621359719498426 )
( 15.025171842126973 1.8975833482237812 0.0399385423357669 )
( 14.780172909210352 1.996296319471211 0.0206458349863785 )
( 14.52175719463485 2.0996517436181565 0.0032891517439991 )
( 14.240569199692038 2.218193594290588 -0.0125552359777661 )
( 13.963668797117634 2.3326718317309787 -0.0265938205022947 )
( 13.66369910896132 2.4723324956270574 -0.037411443259509 )
( 13.33596477509452 2.6531421187533835 -0.0456026277326163 )
( 12.997110016907016 2.8516534875422885 -0.0511752719910954 )
( 12.64740532302696 3.0668881677943856 -0.0540093205895876 )
( 12.318701808689925 3.27765510424252 -0.055672811839626 )
( 12.01183407727481 3.4656837694471827 -0.0557818418626429 )
( 11.708304306563866 3.636854484156638 -0.0533832739127789 )
( 11.404818785503508 3.7970613329473744 -0.0506620774082441 )
( 11.099443747280862 3.987659191125744 -0.0480308000054707 )
( 10.821909106766917 4.245901727846889 -0.0479885471278989 )
( 10.625630051692122 4.5909675520432165 -0.0465472521182969 )
( 10.35246874054535 4.928089497205323 -0.0404371388259085 )
( 15.500033433823589 1.6110426556235111 0.069709995031421 )
( 15.245348492257968 1.697236059859604 0.0486988791979283 )
( 14.944062381008576 1.826638785333087 0.0283966027538575 )
( 14.694615799736818 1.925330262055405 0.0112105291720635 )
( 14.429646398999992 2.0283263503161484 -0.0045821315353343 )
( 14.139287721211744 2.149239305063716 -0.0190022567552162 )
( 13.85125784294268 2.263673800727424 -0.0309661649902494 )
( 13.544275971451706 2.396237452989506 -0.0407812810416354 )
( 13.204962070789756 2.571119741629167 -0.0485121047381206 )
( 12.845442332550926 2.7679629492953626 -0.0537358119702614 )
( 12.47922103330391 2.9931079284127606 -0.0562509818656594 )
( 12.140006947768208 3.211353435152786 -0.0573444361615614 )
( 11.8106192571539 3.395617345357585 -0.0578133915223191 )
( 11.487154015849317 3.5638939394269227 -0.0550929048226407 )
( 11.166110360096376 3.7504272348693832 -0.0506045197246968 )
( 10.855757586343318 3.970710678408822 -0.0486784915682188 )
( 10.598654042428365 4.268559701685018 -0.0495235489768695 )
( 10.355563687517716 4.635346550771522 -0.0449510029650441 )
( 9.883613939546033 4.871135935552537 -0.0399348262458128 )
( 15.439849465654577 1.5479118319111185 0.0558882974673709 )
( 15.18143798317065 1.6329024019352854 0.0368594672062503 )
( 14.876946686697291 1.756418907964637 0.0187871637693527 )
( 14.616500583741672 1.847199103203688 0.0031622925153231 )
( 14.344801257320755 1.9525413749556264 -0.0115208211931156 )
( 14.049523320158247 2.0778045901972684 -0.024672106335246 )
( 13.747829022378603 2.18810100142336 -0.0347877389525155 )
( 13.434417989942643 2.3153729958279725 -0.0434746365171666 )
( 13.076834348670936 2.4909753659337324 -0.0504941157451802 )
( 12.701291868481714 2.6888781431552324 -0.0556357656639253 )
( 12.321418779632175 2.914066680396482 -0.0582913572955547 )
( 11.9573782362436 3.1377665472756164 -0.0588172383817755 )
( 11.617570401307166 3.329937645154092 -0.0581730760406891 )
( 11.287646468490136 3.4997950465509944 -0.0546677177775311 )
( 10.947613930344223 3.705954170297794 -0.0514893286482624 )
( 10.627298709614598 3.961758950265111 -0.05164747297601 )
( 10.37600701188568 4.292778746908404 -0.0497294323536778 )
( 10.037339989758117 4.648870347456936 -0.0430831461185047 )
( 9.25737518595196 4.707594534958537 -0.0393805232018057 )
( 15.382679629314936 1.4825597974238485 0.0421969610498804 )
( 15.122767283562805 1.569444820905017 0.0266276399590047 )
( 14.814624689279803 1.6908520991612253 0.0108681474103647 )
( 14.548953102523493 1.7779570759609848 -0.0037069473397959 )
( 14.266638860952302 1.88042653652192 -0.0169488454747849 )
( 13.956670366052654 1.9961663231703664 -0.0292236214494105 )
( 13.645915359738074 2.1058074787794805 -0.0385949484283084 )
( 13.326469738792314 2.231037022038377 -0.0467126166718508 )
( 12.944467631724011 2.408217303957433 -0.053202234056305 )
( 12.553660045552975 2.614167531795664 -0.0573955251961176 )
( 12.171039987879308 2.835198406502625 -0.0594794351491281 )
( 11.796929348231291 3.061195656363976 -0.0593459570813621 )
( 11.443749573346416 3.263920212638473 -0.057512725687086 )
( 11.08903450841128 3.4422634437776374 -0.05311985773488 )
( 10.740686691366848 3.659450471879696 -0.0506574167264371 )
( 10.421813625853147 3.9504351755281 -0.0512490556671367 )
( 10.121839643764613 4.309476373553404 -0.0483235701475878 )
( 9.69678403082684 4.63521317105443 -0.0439193967135621 )
( 8.420095677135643 4.391876886061181 -0.0367424580991608 )
( 15.33014121242021 1.4239485970938617 0.0304778114560894 )
( 15.064056661215622 1.5073935777146366 0.0170680764153264 )
( 14.752584072017456 1.6253570172698035 0.0031125800273929 )
( 14.486705052171937 1.7126936171366212 -0.0099725876394045 )
( 14.194331327217196 1.808986762495469 -0.0219152236681581 )
( 13.87640402188835 1.9146340303298044 -0.033238881583229 )
( 13.557481936702596 2.0292851161939667 -0.0417318758940524 )
( 13.222041826973822 2.1619640640003976 -0.0491420437990005 )
( 12.820969103689228 2.332822816641096 -0.0556601543321775 )
( 12.409491875358562 2.540881846866505 -0.0589907336991858 )
( 12.019954052201763 2.7574187444614298 -0.0597884515600271 )
( 11.644233562935709 2.971047761105809 -0.0592643119227694 )
( 11.273972999661312 3.1746417852000235 -0.0568883479590106 )
( 10.89660678438179 3.3721026651123416 -0.0531046551679988 )
( 10.537608865195502 3.6137279440255714 -0.0495075776799422 )
( 10.2116310445479 3.934062501518176 -0.0474063577233329 )
( 9.835257484218404 4.3037913138118284 -0.0450877038088245 )
( 9.17167879962618 4.505504787923157 -0.040191682631319 )
( 7.579069937056869 4.0383152697926965 -0.0302728877431789 )
( 15.283873550907517 1.363037831864761 0.0207580492119636 )
( 15.012615528136113 1.4458786466263107 0.0087337385033982 )
( 14.693005917245497 1.5604154458439172 -0.0036583153279662 )
( 14.423925586206355 1.641744064279826 -0.0151727843979247 )
( 14.126432143759228 1.7380224938352724 -0.025863998208256 )
( 13.808847531245052 1.846675314554476 -0.036843087245582 )
( 13.486610615461515 1.9609303049151283 -0.044764621412511 )
( 13.129507885679418 2.0914902136598825 -0.051210154359084 )
( 12.717008469323469 2.2605389003477776 -0.0575575990747176 )
( 12.29683429218431 2.466755140186292 -0.0602789858032925 )
( 11.888995823649822 2.681520066007072 -0.0606612465191311 )
( 11.48770546824228 2.8868538164249724 -0.0598469207855165 )
( 11.096863294486454 3.08492963520933 -0.0580761531187365 )
( 10.708245740263695 3.2959277680105754 -0.0557949501917836 )
( 10.342689738903069 3.569500598087316 -0.0518100019596913 )
( 9.991186764022926 3.926502341472853 -0.0485638991811403 )
( 9.543728758280311 4.282529561267765 -0.0435922904848176 )
( 8.565493047028804 4.288780727709031 -0.0344771454564775 )
( 6.8352151086886765 3.702327338253917 -0.026565312157441 )
( 15.242800541894525 1.2996857871551768 0.0117972428628251 )
( 14.971143769613624 1.3829466103300945 0.0014889056800734 )
( 14.642847587065656 1.4964764546007858 -0.008949269855609 )
( 14.365389163813571 1.572439056344511 -0.0188799569242596 )
( 14.06077537290572 1.66499876674373 -0.0294639233245576 )
( 13.739661832377315 1.7734774879282724 -0.0397326603558902 )
( 13.410492585576298 1.8771143237954369 -0.0473631915047421 )
( 13.04127463746798 2.006407675644756 -0.0535729309838528 )
( 12.628787594221295 2.1852909004446275 -0.0590990079790226 )
( 12.20077575510276 2.389053886480532 -0.0616620277332443 )
( 11.77052220687155 2.606564377401324 -0.0627806414937215 )
( 11.343103524699774 2.8062145039380098 -0.0615814221441712 )
( 10.933415478320644 3.000527606557472 -0.0606601727605155 )
( 10.523568518480298 3.229356524733505 -0.058912716196199 )
( 10.145526476846747 3.5238647619469163 -0.0534333409038169 )
( 9.742908271826082 3.898675886142901 -0.0505566368265257 )
( 9.198539157123044 4.212013169753483 -0.0456776303671004 )
( 8.0315563414211 4.066624786078794 -0.0334447560146028 )
( 6.127397191070532 3.349118117930547 -0.0248090074444429 )
( 15.206537152978084 1.2446829262828354 0.0043042911430352 )
( 14.932274121739972 1.3233516971135029 -0.0047368417090013 )
( 14.598108730395106 1.4306427192163216 -0.0139710269645375 )
( 14.313662170965568 1.5057551804904907 -0.0231704348602897 )
( 14.00268333427484 1.5918962342915328 -0.0333950477226278 )
( 13.678754331151191 1.691084288557591 -0.0421563733281494 )