/*--------------------------------*- C++ -*----------------------------------*\
| =========                 |                                                 |
| \\      /  F ield         | OpenFOAM: The Open Source CFD Toolbox           |
|  \\    /   O peration     | Version:  2112                                  |
|   \\  /    A nd           | Website:  www.openfoam.com                      |
|    \\/     M anipulation  |                                                 |
\*---------------------------------------------------------------------------*/
FoamFile
{
    version     2.0;
    format      ascii;
    arch        "LSB;label=32;scalar=64";
    class       volScalarField;
    location    "0.0046";
    object      k_LES;
}
// * * * * * * * * * * * * * * * * * * * * * * * * * * * * * * * * * * * * * // 
 
dimensions      [0 2 -2 0 0 0 0];
 
internalField   nonuniform List<scalar> 
13597
(
0.1612126548333035
0.1568864365856686
0.150141305322996
0.1448136741688345
0.1424555018081413
0.1418596993147366
0.1418388836545249
0.1428822526585815
0.1450376088604251
0.1475955137100376
0.1515134716258537
0.1567640321471595
0.162470005513402
0.1689293441926005
0.1762562949293887
0.1834912938398037
0.1901399613910875
0.1967956977943775
0.2046912738286004
0.1547601657269448
0.1485485282140244
0.1394507990766679
0.1348009478258348
0.1335525783818175
0.1343301288123025
0.1369869732843844
0.1412051815884132
0.1469070076680769
0.1533158342058578
0.1618117426643942
0.1721297089525235
0.1825995511151532
0.1936852180114966
0.2045789839586526
0.2140643471595826
0.2217444730329767
0.2286704477790539
0.235577923736415
0.1519369733676774
0.1464876527734725
0.139034359560692
0.1369059288724123
0.1380931817109315
0.1414851163360627
0.1465216575818555
0.1536493152437409
0.1626530128545996
0.1727282916008863
0.1841683134929742
0.1971740718591495
0.2104200043028744
0.222418597143099
0.2323805344918586
0.2402180347421446
0.2460873788099631
0.250644551682422
0.2537881159903015
0.1550939067630138
0.1513286073756808
0.1451048476902787
0.1443870310167042
0.1474421257900903
0.1523279219332245
0.1591843265236283
0.1687816265139128
0.1802957097204539
0.193512772136314
0.2072856364861154
0.2212922023540963
0.2340657796668187
0.2446832843814413
0.2524643154780664
0.2576097410115279
0.2605214420750583
0.2622021875722211
0.2625059878549087
0.161438246228878
0.1570512133189555
0.1509807103835815
0.1515921984584693
0.1556708885273617
0.1621544228131771
0.1715760152959514
0.1838243951510438
0.1975608634606913
0.2124142620409188
0.2279872568301911
0.2424152111091154
0.2540029892779068
0.2627228697587079
0.2680736832197931
0.270855719536452
0.2710737698253198
0.2697104002414122
0.2664433407552264
0.1669248612453918
0.1607900275642864
0.1545573587126044
0.1568016703438879
0.1622807988748106
0.1714433896058918
0.1841020971321879
0.1989045249059097
0.2151148765320777
0.2320459092419762
0.2477989550961084
0.2605229829280706
0.2692193056461415
0.273593803742687
0.2749619089713643
0.2738287405696274
0.2705150285520676
0.2654115977325558
0.258430504211272
0.16965077127874
0.1625674485201327
0.1577697162962804
0.1619830629725468
0.1701862560598406
0.1825815273143436
0.1981580703041295
0.2151293356803481
0.2325239340096699
0.2484773557232499
0.2610159403952373
0.2700238726220185
0.2741461450933945
0.2737240593847849
0.270668920449051
0.2659970168837522
0.2598948418469307
0.2523532605968741
0.2435337363221708
0.1713859162854883
0.1639722838112134
0.1618467300815781
0.1690076994761512
0.18022891003219
0.195432670590621
0.2130456032429229
0.2304223671756071
0.2463936459715376
0.2587365639883826
0.2664826999456086
0.2706929467097159
0.2702955342822067
0.2661907014921449
0.2604746727370159
0.2540265212040434
0.2467673894798915
0.2386965730506399
0.2300266746392999
0.172838190381636
0.1666192835119933
0.1675114914506928
0.1773324883688235
0.1910949132531009
0.2082918743527937
0.2254828159482536
0.2409755210956191
0.2539279508411728
0.2622208081946179
0.2654938806252984
0.265276074999339
0.2617410299037943
0.2559478666564612
0.2496576985894441
0.2430127641422041
0.2360780003446232
0.2290612301404619
0.2218957187820378
0.1751958437128404
0.1708429794654607
0.1742994879993705
0.1863680466275694
0.2022829365206295
0.219126552473678
0.233883655826317
0.2463053818696487
0.2549985976209828
0.2595137941026204
0.2600421614348522
0.2575652691911756
0.2528764792390574
0.2471431902445485
0.2413791606672626
0.2357782872768035
0.2303963261436897
0.2252912304280845
0.2203822915883187
0.1786269164815216
0.1758809599553451
0.1819171120359983
0.1952241048671629
0.2109601530089888
0.2257870509405164
0.238047012574126
0.2472299086708134
0.2522001126894722
0.254253120189098
0.2531758483353096
0.2498810505159143
0.2455905070584557
0.2408426046051393
0.2364489742370888
0.2327999551586805
0.2298025924738937
0.2271658033948873
0.2252920272873736
0.183109853802615
0.182159017031893
0.1904090855240175
0.2035772272886913
0.217316808809138
0.2296314503986463
0.2389585326481837
0.2449548859761976
0.2473797956887833
0.2478258831557486
0.2463919813998079
0.243665724059346
0.2404513819276604
0.2373032398085821
0.2350643370141595
0.233861210873172
0.2335310589327294
0.2340200156355511
0.2354364595013708
0.1890896324939516
0.1894199858465839
0.1982696731178176
0.2105127777286295
0.2221936556615777
0.2310744747570224
0.2371018786111019
0.2406837137566745
0.2424028752012922
0.2421879593610701
0.2410050762160332
0.2397586341090388
0.2381484932325414
0.2371891585924067
0.2375146512630216
0.2389069403676983
0.2416926872744749
0.2456262442990419
0.2493299613945012
0.1966893590662014
0.1968046447128777
0.2040593482322291
0.2142921731165129
0.2231650128967154
0.2289590324410064
0.2331394315167091
0.2359336105579899
0.237654011008928
0.2379585850045156
0.2374796078899901
0.2377935119531502
0.2384734768075215
0.2400956522892863
0.2432513991090865
0.247666712722337
0.2536272906069878
0.2602774292134786
0.2666862443118784
0.2037567744441221
0.2025318819288413
0.2088172335428233
0.2157558910750362
0.2217670581636528
0.2257650706604778
0.228271502160586
0.2309109926109197
0.2329391104673484
0.2342620354241711
0.2354217049154882
0.2378047487871737
0.2414392149596639
0.2457685318619189
0.2518513131255209
0.2593489156778514
0.2681482471208985
0.277797860195199
0.2904661446492636
0.2090382534182305
0.2059800347787748
0.2107335426012854
0.2151671736307144
0.2187526379684336
0.221793091587399
0.2239458729744194
0.226246614580873
0.2289443533893223
0.2314064464080276
0.2350040462718239
0.2402081512933318
0.2463677494771245
0.253547416656849
0.2624808178437074
0.2726515634740287
0.2846972314059133
0.3005169828046276
0.324846795045919
0.2122506714026167
0.2081149712296434
0.2103294183276728
0.2130425736513671
0.2149269973826014
0.2171402363802118
0.219605385703225
0.2224110924938896
0.2258211129748759
0.2298468294999764
0.23563420296414
0.243479433018835
0.2523642139190447
0.26231558381407
0.2740675316087688
0.2877317796331735
0.305042509568632
0.3312856892448515
0.3672577476049553
0.21455259126927
0.2090065839271318
0.20901541652971
0.2100328004858623
0.2109860534899169
0.2129840331640964
0.2152867782819545
0.2185908630630121
0.2235504900412619
0.2297036243761
0.2374221454031616
0.247640032628693
0.2594621110487312
0.2723949580400829
0.2871952918602397
0.3048588913756793
0.3310276453185631
0.3693571854659799
0.404233174672742
0.2162762267426603
0.2086482656773702
0.2068240899572918
0.2066158658528359
0.2069195310128574
0.2089647757969256
0.2114442399551813
0.2150256097705415
0.221600511147393
0.230203133990967
0.2406792876057566
0.2531683453279179
0.2676460469830227
0.2840396263963719
0.3022158641098681
0.3261095954833161
0.3637744624172301
0.4121520632776994
0.4328598636191674
0.2162995484860106
0.2068712449056926
0.2039078658411331
0.2026880254183687
0.202469961220545
0.2046126814855679
0.2080138177494238
0.2126334193680802
0.2205695068633351
0.2311343140894184
0.244349375446605
0.2594572577144063
0.2765865688930377
0.2957562317648402
0.3193363760654074
0.351850414005007
0.4011152036464125
0.4537538683041982
0.4516313459859765
0.2155566655235426
0.2048083579388573
0.2002883625097725
0.197911771949199
0.1975163407096956
0.2000156225946479
0.204900160673969
0.2109122708525022
0.220234042275435
0.2323878325018429
0.2481331894064983
0.2665468028864946
0.2861863864433005
0.3075610593158176
0.3375598233430638
0.3818934871435347
0.4418001079976688
0.4906287570493138
0.448121839941469
0.2142694306438128
0.2020570267711695
0.1963999370342902
0.193512293268419
0.1931827868018296
0.1960883546755296
0.2020121151298847
0.2091999679817674
0.2199693613643265
0.2343470960893606
0.2524483411632796
0.272865872397671
0.29491078695532
0.3208842030570996
0.3576400698431677
0.4147328412516837
0.4828204671465153
0.5205722850285476
0.4157845706524488
0.2117268534987912
0.1984105876335853
0.1923582375164029
0.1893938818551438
0.1892421680008754
0.1928401881250318
0.1999754595663513
0.2085142931016961
0.2206380816823251
0.2373552602206804
0.2573236686630859
0.2793194384163617
0.3038033966101168
0.3350587658688075
0.3821977153019553
0.4509506305043964
0.5226614747417728
0.5287959743423439
0.3800683138282845
0.2087639451578738
0.1948504488483993
0.1887715295321707
0.1858751871960556
0.1857325058947874
0.1899111830452644
0.1980114411571061
0.2078729751647465
0.2216458753962203
0.240109901029409
0.2618891137581323
0.2869670019502491
0.3144624473400346
0.3510384629117246
0.4094126031909768
0.4884657128207809
0.558800717163928
0.520394182482325
0.3473312918707085
0.2058679654728741
0.1915968868966682
0.1854315379042915
0.182744707449844
0.1824539786763344
0.1873297934178033
0.1958562903648824
0.2068683319579499
0.2223622908310449
0.2422259999456185
0.2664638826606798
0.2942926797773261
0.3248104591542244
0.3698197060641489
0.4371137336254767
0.5225580514468567
0.583467286454541
0.5070371413908727
0.3099429624620767
0.2034998607213252
0.1888706405125281
0.1818821701165379
0.1793502740101867
0.1794058129937582
0.1849704868556936
0.1941840627172121
0.2064238690143212
0.2232645004125747
0.2448072670464794
0.2710150133176897
0.3007823011348148
0.3354122369943124
0.388370412630178
0.4637734489174708
0.5542943636749924
0.5894085857255117
0.4809364602518269
0.2818800201063183
0.2011472437995486
0.1863979763014031
0.1784408774390063
0.1758828805758907
0.176611581257322
0.1828766894453012
0.1931158173933663
0.2065812458872792
0.2245648532465919
0.2478057615069666
0.2755156030980565
0.3068428956440903
0.3459906086232236
0.4053675328403012
0.4904648022784832
0.5822300110063421
0.5895402476046295
0.4523065986941889
0.2585191410151814
0.1981948770093231
0.1833418386525628
0.1756194789963915
0.1731502197767203
0.1742875387736486
0.1812643478365058
0.1922918716281764
0.206573609328902
0.2255606314269138
0.250887268006996
0.2806584826080754
0.3130603082766424
0.3559594877229435
0.4221431871796513
0.5188563724574319
0.6085995094158374
0.5964131859468582
0.4322861688810866
0.2383566658168352
0.1951215817103703
0.1804231969633615
0.1729192053231678
0.170613499721538
0.1720631704032389
0.1794321415258618
0.1910239905373695
0.2060745865247103
0.2266244352048079
0.2539423199297914
0.2848735822212659
0.3195696060828848
0.3689522482451986
0.4400097350965153
0.5427004368460311
0.6274734015525308
0.5956682759531061
0.4151476409243526
0.2258303079580966
0.1926862808540586
0.1779382137083162
0.1701762811769946
0.1678626799521586
0.1698077717612117
0.17764033899727
0.1895349326507958
0.2056026890856619
0.2279101011057108
0.2558725036944517
0.2875750916460038
0.3261227213012077
0.3803224326861406
0.4574458685787464
0.5628790908701673
0.6238681596974525
0.573006646242912
0.3989259202307328
0.2187042013810564
0.1907237098929851
0.1757614464979658
0.1679654673465034
0.1656314892778444
0.1678375750991132
0.1760925983255102
0.1883213136516786
0.2057755169246449
0.2293422377290096
0.2576451239716669
0.2905864821005541
0.3326899762884874
0.3884694995468833
0.4726172327076967
0.5813381442585341
0.6181366633533573
0.5492177446456162
0.3835925815058501
0.2136837357007334
0.1889108162870477
0.1742464512855403
0.1664747071983505
0.1641582082051223
0.1662708298304904
0.1744749603455391
0.1877466386169845
0.2065810569444378
0.2308795439006097
0.2599609425691887
0.294037104184617
0.33861166058582
0.3974219407817164
0.490331903662776
0.5981599583533382
0.6232307636376978
0.5415546933268723
0.3699988423323345
0.2069343952403485
0.1873296005905768
0.1730423474353251
0.1648222434839631
0.162702011446973
0.1651755063184475
0.1732028698325543
0.187128109751901
0.2067978675036589
0.2320066909088508
0.2623801977430779
0.2975500370911655
0.3439172032370196
0.4054329446713118
0.5050538884118329
0.6142694058706261
0.6318113239805866
0.5403603728233476
0.3608635437630363
0.1996122440272306
0.1858824800672611
0.1715583296345331
0.1628720291417879
0.161031477754307
0.164178846656023
0.1724671444632587
0.1862607271224717
0.206412621864984
0.2329267242723201
0.2648251957296823
0.3014852632890178
0.3488467499011991
0.4120106117889048
0.5149281076266121
0.6278552463877731
0.6417827839639055
0.5416135218663287
0.355561278904206
0.1953326982035266
0.1847225737206187
0.1701121213564234
0.1614743217693468
0.1595872245574555
0.1633052376666048
0.1718797957101358
0.1856650932883586
0.2062318971088334
0.2335498732429875
0.2665334852363185
0.3046463783945661
0.3530057544793544
0.4190968824411717
0.5250635166805709
0.6364695387111959
0.6454163872793706
0.5397104750635837
0.3507558889293924
0.1926608149467913
0.1838871885939182
0.1690412352564467
0.1604210370905426
0.158436988516905
0.1623788666863431
0.17101297969058
0.1849256090719969
0.2061710006083995
0.2341252176180465
0.2676070521397656
0.3068351686589876
0.3566825820108706
0.4255576926310665
0.5326598905488554
0.6431315759377679
0.6479859033710677
0.5357587876947493
0.3451824084804313
0.1894740017709943
0.18334885110454
0.1681837952327455
0.1596075954214893
0.157365354323673
0.1612415269097823
0.1703895070521582
0.1847218606014996
0.2063231766693558
0.2348212550010214
0.2689309677657446
0.3091171869023714
0.3605031972495497
0.4310992651838276
0.539451712043561
0.649199304312582
0.6492876116100424
0.5350690523710775
0.3436408405601182
0.1866973690715009
0.1828655792348087
0.1671819300608369
0.1587897627802249
0.1564568211634157
0.1600984683333936
0.169514257340197
0.1845956598622133
0.2065279742299713
0.2355176759260902
0.2699951685295469
0.3109024640071311
0.3636301063108866
0.4377899572184038
0.5471764468733014
0.6515263209064068
0.6488293220424418
0.5328615334347157
0.3425174006674261
0.1851767499942966
0.1821860477672869
0.1661823225566811
0.157807765744195
0.1560083213342687
0.1595783820371127
0.1686762892350523
0.1839333789240026
0.2061114991374769
0.236089432974628
0.2707992552424753
0.3120541993645134
0.3658025869605945
0.4442843917627144
0.5561734060327649
0.6524978379196364
0.6461256206770677
0.527875058768001
0.3390233998633362
0.1846204343851724
0.1817687608728492
0.1656999540925088
0.1570700276691282
0.1555732817314333
0.1592467108869118
0.1681763421859654
0.1832468966296496
0.2052456241371836
0.2358780933791963
0.2710132038632881
0.3127582001012017
0.3674898413932859
0.4476364654457727
0.5624910304198718
0.653930369517458
0.6416929811680945
0.5245784345063594
0.3367574033818286
0.1843359556390264
0.1818214533773259
0.1656764590136926
0.1566256494233791
0.1550283313853208
0.1587230159691933
0.1675839806898776
0.1825846111417709
0.2047231449654412
0.2356486135348509
0.2715922378535271
0.3138362378874653
0.3697607763116323
0.4509085472342851
0.565909152968029
0.653098833432911
0.6360366798077809
0.5196746425507892
0.3338432841528487
0.184204014127959
0.18191845293363
0.165710166192479
0.156454011485195
0.1546724980159524
0.1581118320845314
0.1670744095573607
0.1821422193744145
0.2044813161232652
0.236047153839095
0.2731258326226166
0.315517223159149
0.3720812316441703
0.45379009733004
0.566874122462314
0.6518277725266896
0.6328378355635341
0.5141030672180792
0.3298183459677324
0.1835790946738514
0.182037577086054
0.1656770798432946
0.1561998166262764
0.1541286642380439
0.1575338561541716
0.1667134983715948
0.1818168025849783
0.2039996006784556
0.2357080006740627
0.2737426265882319
0.316554568449075
0.3728155339952778
0.4530832574285784
0.5671975223925424
0.6539733385325023
0.6317296582032573
0.5094213907202998
0.3261061921109714
0.1816575782475638
0.1824192833122098
0.1657601996944373
0.1558368429983816
0.1536060957975916
0.1572355485287386
0.1663515201607746
0.1813193159012427
0.2035490524779954
0.2354680077088153
0.2743508181123029
0.3175707691153101
0.3738379220850657
0.4534561984528309
0.568680765837755
0.6521145646474237
0.6260956180223002
0.5054809241913695
0.3242270990891099
0.1807787065365041
0.1861734107470663
0.1911432081593359
0.1998517100854122
0.2107133919424591
0.218639753795733
0.2226273091095756
0.2246045783868853
0.224493813333567
0.2231321996604483
0.2204113225230583
0.2164646068471647
0.2124097587705082
0.2072408574430626
0.2012208510563142
0.1961907237382532
0.1919564266581038
0.1883741866441566
0.1854483388005755
0.1836649444356803
0.1891882976605184
0.1970802425950357
0.2102083976421552
0.2248742751177637
0.2334000265890473
0.2379067571575563
0.2401311788886367
0.2389899731234206
0.235229399027895
0.229867180093095
0.2231068110477592
0.2162198673080629
0.2097970593254361
0.2028695032417354
0.1972892804771281
0.1937445478141127
0.191513808912522
0.1906820503659048
0.1906169704363028
0.1953021858617558
0.2054664688549833
0.2206213789788196
0.2347257508762688
0.2403862121469174
0.2421659754532901
0.240568969197626
0.2358656562756603
0.2293440854110235
0.2215751311728064
0.2133130831654554
0.2055608124643716
0.1996222307095966
0.1958674505144998
0.1939425536476639
0.1941409653479899
0.1949930837977091
0.1965509358751602
0.1988858696500171
0.2043519144171495
0.2153148250660866
0.228953574692898
0.2391402209025793
0.24043214221164
0.2384584269203323
0.2334932035862201
0.2266668575194555
0.2188077032816899
0.2103573131619605
0.2035102071150651
0.1981067160818507
0.1949884207395625
0.1945860767229006
0.1956175153530675
0.1979389743497286
0.2005340023938417
0.203417187446396
0.2073387138786903
0.2131234269639823
0.2236285031722117
0.2340517169107263
0.2400155040616801
0.2375447796116904
0.232183288210411
0.2255995487807828
0.2176267751806529
0.2100680288864982
0.2032964290494748
0.1985341609203118
0.1960431560068783
0.1955376729427634
0.1969393476215407
0.1993068247460553
0.2026345011608412
0.2064111291194109
0.2103896308539105
0.2152595764826175
0.2209501891612885
0.2295603644364026
0.2359611405917741
0.2378440615676953
0.2330900818592579
0.2265288549359643
0.219140959102197
0.2111293650536271
0.2046304959423573
0.1992213091404469
0.1960203405116796
0.1953821405723673
0.1965650557449448
0.199198372508094
0.2027262619189874
0.2065527330468436
0.210165855377946
0.2141490906878894
0.2191477731471679
0.2282158322772806
0.2332941570134701
0.2353027670821795
0.2344624627937376
0.2292160899272187
0.2220794466104847
0.2145004366862964
0.2068811490502562
0.2004300366919748
0.1960184330067485
0.1940950358852887
0.1944225074106215
0.1967881861063952
0.2003828215482619
0.2044512613863801
0.2084153141425413
0.2120488883385325
0.2159497465277637
0.220425132839671
0.2328145964765779
0.2347203543356955
0.2343192788628141
0.2314403182871398
0.2257894094655751
0.2181600688718766
0.2101728267426044
0.202504519832751
0.1961537244034175
0.1926436393259178
0.1916458649666626
0.1931322566991884
0.196507453714249
0.2006687637086815
0.2049618760193328
0.2092275731992384
0.2131239847616637
0.2171441328981251
0.2215860839692297
0.2369356675627923
0.2363845877331543
0.2335901111798467
0.2292029018074825
0.2223705706712049
0.2141325751408614
0.2055402505240541
0.1979567579721993
0.1924092519359939
0.1894557808743708
0.1893949250790817
0.192019729093357
0.1963658894544785
0.2011974323771617
0.2058720469282353
0.2104281026339331
0.2148114063636948
0.2193682552857308
0.2240945254332466
0.2394331682240076
0.2371978109900838
0.2328377987261576
0.2268912549678752
0.2185569966371291
0.2097543263600275
0.2009096537561576
0.1935218061404214
0.1885918278510393
0.1866396264102347
0.1878497370638685
0.191317785874751
0.1967168829555522
0.2023568706874887
0.2077073928123156
0.2128796451728232
0.218228136710313
0.2236054643287154
0.228700284240456
0.2401968652612788
0.2372913336988573
0.2316089742575219
0.2241619537753017
0.2146007776676238
0.204955336255779
0.195873227380013
0.1886966759186449
0.1845334559623977
0.1838192764759302
0.1865086354369417
0.191463076093575
0.1980500002418978
0.2048478930323854
0.2112694600310169
0.2174166357093544
0.2237806645793684
0.2298052739579409
0.2353657253791324
0.241886718979863
0.2377649316019719
0.2300705408871268
0.221052122644189
0.2100571321564874
0.1997936790809821
0.1908987152257096
0.1838509824376882
0.1808013082824124
0.1816033677170221
0.186148289655274
0.1930569707918952
0.2007526475390338
0.2088495821286732
0.2165679909673605
0.2238630159455324
0.2311378253546467
0.2381548958891514
0.2446895915583818
0.2435047220036857
0.2374936537923528
0.2279766780501209
0.2171973352738659
0.2053195833039028
0.1945261389389045
0.1858131084905481
0.1795638548057692
0.1779512462839
0.1807431399018144
0.1871625402557474
0.1960046446300918
0.2050698723555377
0.2141195301750246
0.2232061125027202
0.2319025797219379
0.2405262958889246
0.2491158897472954
0.2572522943520245
0.24479331858759
0.2367935539238709
0.2253191993398412
0.2127249267630809
0.200470808762209
0.1890751847762796
0.1803774484470695
0.1757944314115083
0.1763353811657971
0.1811839470607534
0.1893301914118875
0.1997569295628326
0.210629439455828
0.2207771316210859
0.2311554047090249
0.2419350590172409
0.2522541538117722
0.2624838871812841
0.2728670245738664
0.2469740933286123
0.236023794294309
0.2217180548437869
0.2082187783061306
0.1952641388020143
0.1837623745703382
0.1760178102909294
0.1730717453513416
0.1755005803731657
0.1822647891848249
0.1920584466373266
0.2040554802129174
0.2168292513095527
0.2288936079635721
0.240767647720313
0.2534700323125407
0.2660279974007594
0.2788648673633169
0.2948042167304248
0.2487561721732595
0.2344432570718957
0.2178971504961285
0.2037118762287268
0.1902051956435231
0.1793020882957209
0.1725980289088721
0.1713752736553349
0.1753213540301677
0.1839953590097705
0.195697108776398
0.2093608102414666
0.2238722603299485
0.238080987167082
0.2520678312910959
0.2662522792900721
0.2817062513722513
0.3002677514528742
0.3256109000250701
0.2486429497680586
0.231585574941196
0.2138385530337844
0.1991513422081283
0.1855571896375866
0.1753038313334154
0.1699374763197089
0.1704437103685212
0.1762400815846727
0.1867946114590319
0.2001406223345239
0.2155539341327438
0.2316559491340678
0.2477698057338209
0.2641266885777846
0.2809249297085467
0.3006073840158667
0.3278723300745697
0.3614643093242156
0.2470804346780427
0.22774984060123
0.2088649348758131
0.1942016815922257
0.1810920399304716
0.1716566100174644
0.168025670734031
0.170139094171641
0.1778674750731299
0.1899455238710061
0.2048430996556115
0.2226222168757964
0.2404712205202282
0.2586533449334838
0.2772871165946274
0.2982250195898726
0.3251168877017692
0.3634023701021346
0.3976813063192985
0.244732384585758
0.2236120054203814
0.2040593636500962
0.1889915455369918
0.1764070793440992
0.1682664766255712
0.1663576256918744
0.1704197528392234
0.1797015553924022
0.1931577049115758
0.210110810857368
0.2298391527778079
0.2499295714532199
0.2704689384038006
0.2920062866172109
0.3189517332602212
0.3553937707709691
0.4017479761489196
0.4232912875014125
0.2416974825853851
0.2199273941344907
0.1996742143961778
0.1844562645087169
0.1724052608788891
0.1653048393739513
0.1649379955394364
0.1708111852569344
0.1819240289821392
0.1971144780934826
0.2161851974828994
0.237526526229516
0.2599868650065011
0.2833702626579594
0.3087860357424966
0.3422574464826767
0.3899317568895909
0.4369649771302265
0.4368713284951397
0.2389730227569203
0.2172316749833281
0.1954373254808735
0.1800995475880218
0.1692298303537954
0.1632561828215961
0.1642082986121899
0.1716749820138974
0.1842174942625913
0.2010630302397639
0.2223848046515494
0.2462576031261153
0.2707205845174772
0.2970443115586694
0.3276937821413486
0.3694042233004362
0.4264128837199062
0.4701046077117415
0.4360808907894227
0.236365483927302
0.2133962373024603
0.1909586507769916
0.1758572243043388
0.165917901248258
0.1615782249597004
0.1638709928105129
0.172803782373587
0.1866883744621449
0.2052541341132874
0.2283055828503972
0.2544161786268454
0.2814546628102899
0.3109775813860368
0.3467611196673932
0.4002464712587341
0.4661934573914565
0.5028320190851354
0.4066721021192891
0.233540414896143
0.2090061130850161
0.1869735520817404
0.1724294254582859
0.1628710667317007
0.1600477117305064
0.1639589372189396
0.1739461595579535
0.189591144932692
0.2100309020046052
0.2346895998710403
0.2632771694861053
0.2935256050460128
0.3265851758466989
0.3703002452300842
0.4355846558321862
0.5047323023318144
0.5072919899146104
0.3675183497230645
0.2301963625239804
0.2050152518313819
0.1833783380845944
0.1693607262850307
0.160650139759915
0.1589051376166013
0.1641272867609797
0.1751351631543873
0.1922356180118154
0.2147685160171943
0.2414204402016601
0.2723437737162142
0.3054811602506901
0.3430299966132036
0.3965495767130117
0.4716129912428496
0.5354054446947901
0.4930899290213556
0.3365064618655176
0.2260100595845916
0.2005992704059028
0.1794925806612791
0.1661719408229245
0.1588020021218487
0.1583170929439721
0.1642852248800201
0.1763412770443058
0.1949982737229093
0.219783343725776
0.2488826551791119
0.2814904444052276
0.3173501954421223
0.3616001707791054
0.423311660998669
0.5019678356652831
0.5549242302710041
0.4846787324737331
0.3066587314179237
0.2220431400967941
0.1964834493149628
0.1754389870695317
0.163141646695425
0.1572801739493996
0.1580045723077505
0.1649856972147073
0.1783546726805969
0.1984715342674673
0.2247853793981075
0.2558488271279953
0.2906842840496859
0.328694882776712
0.3791676080043917
0.4498137828194985
0.5293475882641627
0.5552462574726401
0.4587318016161184
0.278665538232473
0.2183891951600506
0.1927327917671977
0.1719341881609472
0.1606652232128406
0.1560870101810437
0.1577011247694557
0.1658078988043972
0.1805585992684831
0.2017192328347877
0.2290509628784627
0.2622043283008299
0.2996357372269003
0.3401833312613115
0.3948954367223172
0.4734648303477653
0.5558217617357665
0.5581205058200044
0.433606929225393
0.2547460182201767
0.2142762490031005
0.1889171986099347
0.1689078836254411
0.1587505269036807
0.1550069501839839
0.1576335173288875
0.1667684453970838
0.1823326396409942
0.204254016741462
0.2329081791897319
0.268243738781375
0.3072887211262843
0.3523121026075483
0.4129722259904052
0.4992622578878249
0.5841959111164424
0.5707820108350511
0.4214508205534488
0.2391238606061619
0.2105668022303876
0.1857036948345578
0.166547783915463
0.1573607148782765
0.1541465450166939
0.1578311773212174
0.167818742824365
0.1841691214096416
0.207100721856246
0.2372956921247978
0.2734878027406356
0.3141488440925305
0.364171437319613
0.4306354270365299
0.5218522997862227
0.5990488575512174
0.5691703138532297
0.4080868436790306
0.2288927321621987
0.2070767951823119
0.1829022639450863
0.1645143164552683
0.1561424914654802
0.1534143891482323
0.1579993927110758
0.1689207053320212
0.1861956302558583
0.2098412970779782
0.2410190808585616
0.278876837821584
0.322685061275573
0.3765921932196018
0.4454079530899049
0.5398389404738914
0.5982161350972173
0.5467195776900855
0.3869937554381947
0.2182847570525758
0.2034264739205287
0.1802913080340709
0.1625403718836049
0.1549376643597387
0.1529941167557245
0.1581133365902664
0.1699212133632976
0.1883773400654621
0.2125906578416548
0.2442944363122693
0.2837914764304014
0.3297264770610227
0.3849971700191659
0.4581338200580598
0.559463091545238
0.5995278316013432
0.5259425754996992
0.36729275657991
0.2087556028111329
0.2006107787142539
0.1778711756891043
0.1609883542942394
0.1539259364006916
0.1527842574279137
0.158401495167218
0.1708705719971028
0.1902959672719533
0.2156490926332276
0.248539591015796
0.2888395901614001
0.3357681487315604
0.3924725954278798
0.4720429052274777
0.5776201156902627
0.6076121696738485
0.5213524991090172
0.3549428419267226
0.2006660554513944
0.1981464110645974
0.1753391745910949
0.1597585751928032
0.1533445194779482
0.1527396129050608
0.1589423696556978
0.1717737860695953
0.1916886679167752
0.2181472257093144
0.2526401410621592
0.294299279201545
0.342275220037629
0.4013217193163699
0.487838754845748
0.5939036618008507
0.6188031627510622
0.5231831727885953
0.3470951347251853
0.1971920463672341
0.1956059561368708
0.1734401434555595
0.1588040239087837
0.1531702197282772
0.1531335113882807
0.1597880375039355
0.1726810693038181
0.1928557193361365
0.2202842146453425
0.2555708488709673
0.2974078443532787
0.346889395637295
0.408050438573256
0.5011134764200739
0.6065372952927192
0.6250068349425418
0.5248662062202794
0.3417686100583809
0.1934690500328736
0.1934245939124763
0.1720186111651484
0.1577752132110015
0.1529231008738329
0.1535748484622666
0.1607575253232243
0.1738337074890173
0.1941119282639541
0.2226774489715595
0.2585085789259378
0.3002156922512302
0.3513881720167575
0.4133437531055668
0.5099643311912839
0.6159734934230798
0.6310274882217345
0.52585816038237
0.3363352796792995
0.1883499787442225
0.191540987911979
0.1706348728901043
0.1567966659766726
0.1526499071754294
0.1540817332919448
0.161632551292183
0.1748392496852774
0.1956999799831308
0.2251796246224283
0.2613253525665811
0.3042032400586237
0.3559541007672774
0.417572603898062
0.5187551254545069
0.628410932419801
0.6385485192170306
0.5240095714060521
0.3326320394133848
0.186494270530828
0.1900049210457009
0.1696869541332638
0.1561297796695474
0.1524611105894597
0.1543247274639142
0.1623702554863194
0.1758620336173281
0.19735329235148
0.2275540317479613
0.2636528383270311
0.3067091063349472
0.3593067077835846
0.4232209953882619
0.5278136938703422
0.6381151676163569
0.6432007150696903
0.522580795808695
0.3317422106352279
0.1866928837717384
0.1884998430173659
0.1687899335692073