/*--------------------------------*- C++ -*----------------------------------*\
| =========                 |                                                 |
| \\      /  F ield         | OpenFOAM: The Open Source CFD Toolbox           |
|  \\    /   O peration     | Version:  2112                                  |
|   \\  /    A nd           | Website:  www.openfoam.com                      |
|    \\/     M anipulation  |                                                 |
\*---------------------------------------------------------------------------*/
FoamFile
{
    version     2.0;
    format      ascii;
    arch        "LSB;label=32;scalar=64";
    class       volSymmTensorField;
    location    "0.0046";
    object      tauij_LES;
}
// * * * * * * * * * * * * * * * * * * * * * * * * * * * * * * * * * * * * * // 
 
dimensions      [0 2 -2 0 0 0 0];
 
internalField   nonuniform List<symmTensor> 
13597
(
( 0.139182445789812 0.0456810323330861 0.0047299609830046 0.0520278726488075 -0.0169224915667546 0.1312149912279872 )
( 0.1373753757132032 0.0443509312287972 0.0065074829713359 0.0487143288183148 -0.0180159411561519 0.1276831686398193 )
( 0.1346108230738175 0.040826885236037 0.0089181788769368 0.0440701039001422 -0.0199603808999769 0.1216016836720324 )
( 0.1306774032853032 0.0357251115930074 0.0107880833976203 0.0432289828398946 -0.0217536939193858 0.1157209622124711 )
( 0.1279688895279462 0.031831305760983 0.0115372044845618 0.0455322619078178 -0.0224585246148305 0.1114098521805182 )
( 0.1270479148437025 0.0295817687536578 0.0119223450722066 0.0482802034545824 -0.022641600230581 0.1083912803311881 )
( 0.1261342952506035 0.0277781758277307 0.0114686714837118 0.0516858395356207 -0.0223711063906665 0.1058576325228254 )
( 0.1258620342822667 0.0264891079989978 0.0101215964618396 0.0559758530364525 -0.0219868631700475 0.1039266179984437 )
( 0.1260702708394103 0.0257436929681953 0.0089833734736008 0.0605071118617676 -0.021639602966898 0.1034978350196722 )
( 0.1263636404622699 0.0254676573219421 0.0079523718291761 0.065017115090737 -0.0212282568482834 0.1038102718670682 )
( 0.1278957585595443 0.0258507132082027 0.0072356947049018 0.0696004124205716 -0.0206207688545067 0.1055307722715914 )
( 0.1302059802283499 0.0271576377622267 0.0071357398920135 0.0741368528076891 -0.0193290237344128 0.10918523125828 )
( 0.1330765361143972 0.0290634098501328 0.0071588095920405 0.0784600120994734 -0.0179603125259205 0.1134034628129334 )
( 0.1363184102282055 0.0314811498586304 0.0077318822031015 0.0822143310096467 -0.0162193143582784 0.1193259471473487 )
( 0.1395701221795829 0.0344271972989179 0.0088057053098998 0.0853595575940714 -0.0136307333716941 0.127582910085123 )
( 0.1425573275312185 0.0375825543639558 0.0100553051672393 0.0877667555897677 -0.0108209868418116 0.136658504558621 )
( 0.1457420671292555 0.0407753153072225 0.011692330906448 0.089151628699841 -0.0083632059727703 0.1453862269530781 )
( 0.1496991008260272 0.0441707641351657 0.0134078982573234 0.0899684888591477 -0.0057216739527641 0.1539238059035799 )
( 0.1537186841507188 0.0479039356380441 0.0154459270638712 0.0911653045604727 -0.0019889243877284 0.1644985589460091 )
( 0.1277154454209304 0.0393018817522194 0.0143105920138095 0.0502003961290156 -0.015135454977778 0.1316044899039435 )
( 0.1235581556662311 0.035799787983773 0.0154726476298906 0.045581984575437 -0.0167690971221625 0.1279569161863807 )
( 0.1184216087574997 0.0312727407314276 0.0162339782767895 0.0400031539652541 -0.0193000782855219 0.1204768354305818 )
( 0.1148996412862706 0.0277173484054578 0.0157211988877807 0.0395239826468322 -0.0208731588788248 0.1151782717185666 )
( 0.1133927254036226 0.0263049801982877 0.014377272355508 0.0415534776555425 -0.0207374729695832 0.1121589537044699 )
( 0.1131618028852171 0.026121382681459 0.0134551471293396 0.0447743637772801 -0.0201143344328943 0.1107240909621078 )
( 0.1143169794244087 0.0270147917536295 0.0126036261036766 0.0489469005758575 -0.0187034735736125 0.1107100665685024 )
( 0.1155422303274998 0.0288958075215424 0.0112526589072688 0.0541874835127195 -0.0170473721804148 0.1126806493366069 )
( 0.1171043687700895 0.0313927281899448 0.0105576185639437 0.0600312257905267 -0.0150580682222844 0.1166784207755377 )
( 0.1192585392575594 0.034451147807519 0.0109055321891103 0.0658534501049567 -0.0131144308598667 0.1215196790491995 )
( 0.1225507300066296 0.0382936070416623 0.0118400753054509 0.0723193878336475 -0.0108719751565078 0.1287533674885111 )
( 0.1262313585473726 0.0426250471131558 0.0133272984648661 0.0791423800106193 -0.0077834742588397 0.138885679347055 )
( 0.1304264742531734 0.047357987640848 0.0150541474959326 0.0856978403319273 -0.0050353963143548 0.1490747876452057 )
( 0.1355668594096349 0.052545115656832 0.0172311827809602 0.091773795109865 -0.0020014482761123 0.1600297815034931 )
( 0.1401149442261533 0.057427844553016 0.0193774014802857 0.0971222570332547 0.0014878393131942 0.1719207666578971 )
( 0.1435304751367093 0.0615237305687015 0.020963251637623 0.1018966605634602 0.0045148259507172 0.1827015586189957 )
( 0.1463440616522542 0.0649496425315129 0.0223018234734725 0.1052615827857587 0.0070514340520707 0.1918833016279403 )
( 0.1499357262289805 0.0681381924125191 0.0237500293254323 0.1075220723931992 0.0091578202093492 0.199883096935928 )
( 0.1539070429731349 0.0709199490612869 0.0251279326235257 0.1098908228384769 0.0113043111923095 0.2073579816612181 )
( 0.1158873829379568 0.0279321269116007 0.0189816917857872 0.0486228348768891 -0.0155266924412127 0.1393637289205088 )
( 0.1124357389310495 0.0242162130315717 0.0186038500504377 0.0438865236870773 -0.0177974360691606 0.1366530429288182 )
( 0.11027464752848 0.0218692298895396 0.0163516899840218 0.0391407255589926 -0.0206485323839345 0.1286533460339113 )
( 0.1101371643002613 0.0218502577516458 0.0126025758912727 0.0396734555371302 -0.0214473409941412 0.124001237907433 )
( 0.1111236309033731 0.0236196751852131 0.0091772210370579 0.0423415726793953 -0.0199159608795163 0.1227211598390944 )
( 0.1129527282602081 0.0264570932214213 0.0074391492244866 0.0467169691879635 -0.0181954275248809 0.1233005352239538 )
( 0.1149647920095269 0.0300906364081435 0.0066895573885552 0.0520344400176481 -0.0157592621730388 0.1260440831365358 )
( 0.1167682809594968 0.0342623851070666 0.00647952799607 0.0581987371800089 -0.0128871597152827 0.1323316123479761 )
( 0.1189505326448799 0.0390055347479871 0.0078197634589207 0.0652765275601743 -0.0099094681807687 0.1410789655041451 )
( 0.1216345150823881 0.0442111620448268 0.0105735058789511 0.0727754432743666 -0.0069797524517949 0.1510466248450177 )
( 0.1247902393163716 0.0496207130273302 0.0139626638990336 0.080571739700529 -0.0037386515241144 0.1629746479690477 )
( 0.1283754428576624 0.0549412800385369 0.0176379813773468 0.0887552961332308 -0.0002512740344241 0.1772174047274056 )
( 0.1327671993633183 0.0601341755391034 0.0219290465589294 0.0964414570592563 0.0029599906112016 0.1916313521831741 )
( 0.1374540271643212 0.0648717206504827 0.0262797145994993 0.1029153955713737 0.0060274973232673 0.2044677715505032 )
( 0.1413841918627874 0.0685549379003154 0.0300898206239395 0.1080173554439621 0.0088754406995789 0.2153595216769675 )
( 0.1445712128805239 0.0711298103127034 0.0332896245013364 0.111896875671953 0.0112239835990145 0.2239679809318123 )
( 0.1472425121984239 0.0728364130563367 0.0360959430526805 0.1144656099424587 0.0131739282843349 0.2304666354790435 )
( 0.1498466514034494 0.0740136613008988 0.0390560089867767 0.1160846961994561 0.0148874869424855 0.2353577557619382 )
( 0.1521981459750588 0.0744810832170465 0.0417415957548249 0.1171516487937655 0.0162545953134545 0.2382264372117785 )
( 0.110130767735483 0.018097911323122 0.0197828474593694 0.0487750063000463 -0.0171438422084178 0.1512820394904983 )
( 0.1093751684404059 0.0161800589457222 0.016445875463616 0.0446780266388384 -0.0193589066313693 0.1486040196721172 )
( 0.1097686355468831 0.017537031442474 0.0101064808268392 0.0412350392941974 -0.0217828571040484 0.1392060205394767 )
( 0.110700184547057 0.0213997528622013 0.0040846357843819 0.043355966442541 -0.0215642673293463 0.1347179110438102 )
( 0.1121499168719231 0.025745809519929 0.0007345053863899 0.0473982443228894 -0.0187288987583612 0.135336090385368 )
( 0.1135449912720952 0.0304417138426095 0.0001349492810041 0.0525812209585002 -0.0154092642649808 0.1385296316358536 )
( 0.1144474266616899 0.0358360727518746 0.0015593885726378 0.0589250374335951 -0.0114899875962273 0.1449961889519714 )
( 0.1161229126869855 0.0413867768177402 0.0045098873984144 0.0661755817579897 -0.0071738767115051 0.1552647585828502 )
( 0.1187062103236409 0.0471662764123359 0.0095698413551852 0.0741169932345825 -0.0030343238562432 0.1677682158826842 )
( 0.1219991354156123 0.0531736481550796 0.0158734976767783 0.0826285344761846 0.0011980941855952 0.1823978743808309 )
( 0.1256309529006205 0.0587173558396255 0.0229197508678672 0.0910281298439154 0.0055885540962724 0.1979121902276947 )
( 0.1304316036730095 0.0635070784877568 0.0302020934968851 0.0989136318524728 0.0096127477134597 0.2132391691827103 )
( 0.1360667799660297 0.0674298814745545 0.0376823026810889 0.1052846367322041 0.0132239918200461 0.2267801426354037 )
( 0.1411116152019978 0.0705388174172806 0.0444906146311742 0.1104287545224181 0.0162822284313574 0.2378261990384669 )
( 0.1453442763336276 0.0724151231991247 0.0497861177190142 0.114037469064125 0.0188977841293343 0.2455468855583798 )
( 0.1490232413687172 0.0732307527543421 0.0539717638111026 0.1160033765743028 0.0209526632566839 0.2501928640800357 )
( 0.1519189668363989 0.0732156743297733 0.0573672202849391 0.1167927454439722 0.0223390218713331 0.2523311718697453 )
( 0.1547922561015978 0.0729263139320615 0.0604444296741926 0.117080407726148 0.0234696828257263 0.2525317113166961 )
( 0.15751630082749 0.0720534608326955 0.0629539979981148 0.1167882773401829 0.0242877524519024 0.2507073975421444 )
( 0.1082921910423789 0.0127690341246466 0.0152190489996548 0.0508368758539208 -0.0185358816954638 0.1637474255614562 )
( 0.1089569584900951 0.0137152546105465 0.0084635187919005 0.0474158448702669 -0.0209194656048992 0.1577296232775487 )
( 0.109386288151295 0.0185494183471934 9.775716896852903e-05 0.0456465144673537 -0.0220688958534474 0.1469286181485141 )
( 0.1093746287079497 0.0250536296665813 -0.0052817681896708 0.0496444611224057 -0.0199538596652766 0.1441653070865831 )
( 0.1096888849550897 0.0308680801343313 -0.0062965679071049 0.0548115333907703 -0.0153091879397824 0.1468413587088635 )
( 0.1100961034497896 0.036931932008913 -0.0036815815913616 0.0609016805077859 -0.0098147303097924 0.1533110616687787 )
( 0.1114941544551953 0.0437346221808065 0.0023121879512748 0.068147183923995 -0.0035988812272314 0.1635106922127123 )
( 0.1141461339656653 0.0503447152137457 0.0105204090584509 0.0762925704127071 0.002785988145641 0.177210085923715 )
( 0.1179532980024191 0.0564874886811334 0.0197542210871439 0.0845131844902902 0.0085328293538313 0.1926552444286732 )
( 0.1229794119202537 0.0624111184975587 0.0298107790650016 0.0927891894441668 0.0138857073043833 0.2090599227174169 )
( 0.1291680166231236 0.0678020888619949 0.0402159375127918 0.100916496810724 0.0188876143434967 0.2258900002265344 )
( 0.1361409637714978 0.0718474909468716 0.0495756218494071 0.1076694373805685 0.0231804123929845 0.2410200210661644 )
( 0.143010579965747 0.0746351410209837 0.0574711187891358 0.1126160514459562 0.0265511687101096 0.2523793471441104 )
( 0.1490283791120747 0.0765070632242531 0.0637444363942673 0.1162860195268767 0.02887667101896 0.2601313408784644 )
( 0.1537531958169919 0.0772693730768221 0.0680842168991162 0.1181841590965427 0.0304656985371334 0.2642100115260511 )
( 0.1573992452146012 0.077340917890729 0.0706671599306752 0.1189538749207287 0.0313185210608611 0.2653583189375739 )
( 0.1597286719301697 0.0766226937964926 0.0718321325651559 0.1190199266472862 0.0313010825666251 0.2633989410731837 )
( 0.1617187946416362 0.0755261646414468 0.072178801451935 0.1186452144577637 0.0308041331175577 0.2590567913834243 )
( 0.1633204243476953 0.0739480864498114 0.0716391809435933 0.1176325781703811 0.0297047618447673 0.2519336789923763 )
( 0.1068219465954234 0.0119610528107046 0.0060500041065535 0.0546379582138617 -0.0197218885820887 0.1723898176814984 )
( 0.1064206012701968 0.0157345182754517 -0.0032543550407665 0.0521710292604379 -0.0214894913685048 0.162988424597938 )
( 0.1053694643069671 0.0230559523879665 -0.0102670254112107 0.0520566293806881 -0.0203934645758189 0.1516886237375536 )
( 0.1049357001408965 0.0310357058685426 -0.011304240012294 0.0573114668996883 -0.0154630382327564 0.1513561736471909 )
( 0.1052541861402917 0.037835570055747 -0.0073201133958331 0.0631856446696167 -0.0084575426142762 0.1561217669397127 )
( 0.1068462584741097 0.0452502343772923 0.0007405313733574 0.0702496356421794 -0.0008249963362538 0.1657908850954944 )
( 0.1105061362813192 0.0530969679863752 0.0116566045651066 0.0782780901808782 0.0073402706633852 0.1794199678021782 )
( 0.1152347965480538 0.0602326898291534 0.0243126281046741 0.0868189802088563 0.015270004306555 0.1957552730549093 )
( 0.1213856934431947 0.0669457733499668 0.0373225631518737 0.0951982418457324 0.0224822061480592 0.2136458177752281 )
( 0.1289971443149585 0.0730469778859561 0.0495359034852136 0.1033806614640315 0.028533676255875 0.2317140127049622 )
( 0.1368320407257689 0.0777812335722666 0.0597605042749717 0.1106164550634557 0.0328902811019489 0.2481494144029921 )
( 0.1439914779755265 0.0810920728946903 0.0674052710126441 0.1161993812111188 0.0360749327084286 0.2608551066694958 )
( 0.1497140048331686 0.0827945414793926 0.0721785143943426 0.1199937178169808 0.0374181083403818 0.2687308886421336 )
( 0.1538158536320201 0.0831274381349693 0.0745902430716631 0.1221306853695813 0.0372109843169954 0.2712410684837726 )
( 0.1564398955172139 0.0829038636923272 0.0751489326897392 0.1231409958656611 0.0364577604222868 0.2703429265598535 )
( 0.1576541639795091 0.0823091670872824 0.0741068449322746 0.123382795210368 0.0351447948763774 0.2666205219493775 )
( 0.1580234308956234 0.0813041567559878 0.0720739921344559 0.1232275678617642 0.0332417289067603 0.2597790583467474 )
( 0.1577838780113906 0.0799927107524097 0.06933390370118 0.1227496106255649 0.0308726702970957 0.2502897068281557 )
( 0.1573010324034627 0.0783866102021488 0.0656100630924699 0.1216983801086403 0.0278579929656137 0.2378615959104409 )
( 0.1031077077260274 0.0142918170144163 -0.0064392613239327 0.059984176883482 -0.0199825778841973 0.1762096579479705 )
( 0.1015799439483007 0.0202611147599334 -0.0148946342363079 0.058637967251841 -0.0203560706948355 0.1649169858401238 )
( 0.1004532700342734 0.0292226631821878 -0.0167332539268038 0.059886754970574 -0.0164377614158348 0.1551994075877134 )
( 0.1009649829207578 0.0383619082673146 -0.0110753729021659 0.0658273032896731 -0.0084229711078956 0.1571738397346625 )
( 0.1033053821473696 0.0465806766660093 -0.0008767523112506 0.0726178326906775 0.0008418597503649 0.164449297281634 )
( 0.1076496434074851 0.0551006538148803 0.0129505658015127 0.0804617671866436 0.0107010226858966 0.1770516440345586 )
( 0.1135927529426814 0.0632369616932174 0.0283910639642705 0.089030329860563 0.0203337364830209 0.1936930578050145 )
( 0.1205028448679361 0.0705438108797939 0.0431198380785492 0.0976594080051121 0.0288039142142852 0.212096418487648 )
( 0.1280851407293946 0.077391821390646 0.0567392566831919 0.1060078292259917 0.0363142143615449 0.2309548980639534 )
( 0.1353206009553659 0.082568233732191 0.0671549150261581 0.11345658217109 0.041384671827559 0.2481775283200438 )
( 0.140975320387487 0.0858129683000413 0.0734274672236849 0.1195873042264175 0.0432332719352004 0.2614692561765702 )
( 0.1455999790813348 0.0880146353406086 0.0766757644164137 0.1242973110351392 0.0435283105054487 0.270150455127563 )
( 0.148501903844759 0.0885908196659449 0.0767915856335453 0.1271637128960391 0.0418741553005611 0.2726266734459908 )
( 0.1496523616000922 0.0880947252405951 0.0750216928476902 0.1286732850478416 0.0391987424714535 0.2691224721216358 )
( 0.1496280102475793 0.0872574800382732 0.0718139203120656 0.1295317475102379 0.0362034673206418 0.2621780831402843 )
( 0.1488331338975968 0.086513914681084 0.0677002989278138 0.1299275384613292 0.0330242342335133 0.2532333614085784 )
( 0.1478535325142154 0.0858840898634097 0.0632881956437155 0.1299290988171517 0.0297564219368047 0.2420070523624941 )
( 0.1468607728539582 0.0852423940660144 0.0583328008986079 0.1296168613859674 0.0261151164809997 0.2282288869538222 )
( 0.1461650560904899 0.0846487709695073 0.0528013595800405 0.1288587561932509 0.0222289174644802 0.2120436603606006 )
( 0.0989916471469478 0.0186262400876145 -0.0185112111213685 0.0661389448194568 -0.0194506184484391 0.1776412406045718 )
( 0.0968027212332943 0.025935779463925 -0.0226266366189727 0.066085682525914 -0.0181597617570817 0.1650561638632184 )
( 0.0973467761585072 0.0362596498422575 -0.0171196830780297 0.0684749900427402 -0.0110264864510279 0.1578716939619087 )
( 0.1005716545838054 0.0464510788037976 -0.0043525799620487 0.0750207627457252 9.236190078123444e-05 0.1624229816227715 )
( 0.1054163210323145 0.0557829952696105 0.011915297144816 0.0826468470432265 0.0115669436438778 0.1723946519888389 )
( 0.112283017198496 0.0649209806714185 0.0304185882716866 0.0909139223483306 0.0232308782924149 0.1876684016344155 )
( 0.1200313439555314 0.0732634095231737 0.0477798081568174 0.099743674940176 0.0338058764513624 0.2063161875901383 )
( 0.1269546271241896 0.0801475236923919 0.0612940974151875 0.1084493476559797 0.0417113510240241 0.225440759571045 )
( 0.1328546967640147 0.0858848447930271 0.0719680808297055 0.1165444395789684 0.0472008133572205 0.2433881556000919 )
( 0.136930956653962 0.0894681425177899 0.0781949964156088 0.1230109844235772 0.0498682700538729 0.2575311868992259 )
( 0.1391643413911209 0.0909786015596054 0.0794945035712488 0.128126535605995 0.0486892456077488 0.2656745228941014 )
( 0.1406794965446519 0.0918689086418699 0.0779413571800885 0.132234770679688 0.0455447661073178 0.2684716261950917 )
( 0.1409529365718601 0.0919870618918342 0.0739556795076329 0.1349024311638859 0.0415301664235284 0.2647357008286675 )
( 0.13994874580922 0.0915822651207983 0.068563561552212 0.1366502167993035 0.0369483116945939 0.2557824403757662 )
( 0.1386624795929465 0.0912094843015758 0.0629673789829607 0.1378399056181943 0.0326540148451704 0.2444469602628908 )
( 0.1375875411631187 0.0913861691994336 0.0572214683440242 0.1388383266885081 0.0285283512571239 0.23162717455646 )
( 0.1368111498864108 0.0918458704924719 0.0513801221652248 0.1394149168169871 0.0245022898201528 0.2173087122563848 )
( 0.1367056773017469 0.0925316284786982 0.0452628449712892 0.1394462433623766 0.0202613870380716 0.2012412254371561 )
( 0.1374173097223641 0.0935141600489035 0.0391355006859208 0.1389530982604626 0.0161478108805572 0.183682941295773 )
( 0.0951806585361957 0.0237546149221191 -0.027326342316564 0.073106447537914 -0.0180811349610112 0.1773892746891621 )
( 0.0938592943504365 0.0319424636509528 -0.0254152540119588 0.0743307659072248 -0.0144742770632795 0.1650485067663253 )
( 0.0971889461535807 0.0433185841626304 -0.011779673720958 0.0775013997256439 -0.004209609257162 0.1603326370221611 )
( 0.1029725879706722 0.0543747836373394 0.00783513286526 0.0845363552967408 0.0094448538527547 0.167156033470234 )
( 0.1097767478300015 0.0644129110133548 0.0288015195209245 0.0929325887721758 0.0229076327366875 0.1794804899040244 )
( 0.1180187009063764 0.0738066184498735 0.0487297679683192 0.1015784158300659 0.0353425541572251 0.196986631969145 )
( 0.1249453053827692 0.0814117536835854 0.0641759899514533 0.1103495833949095 0.0450813603001002 0.2156707431188285 )
( 0.129530823279533 0.0871214938431035 0.074803637134148 0.1187445879761679 0.0514165177049202 0.2336756309355372 )
( 0.1325728191334847 0.0912101241296234 0.0809670611617839 0.1261577353013742 0.0541488070969488 0.2491253472474865 )
( 0.1332287402295979 0.0932825632286291 0.0820738882928824 0.1323261873812021 0.0537585388275679 0.2588866887784357 )
( 0.1326802715868071 0.0936127918353785 0.0789237845384902 0.136836426175037 0.0500252412922698 0.2614710634887527 )
( 0.1320161970354642 0.0938376596123361 0.0734166260427182 0.1405238127856065 0.044390706503708 0.2580121401776071 )
( 0.1308831770150094 0.0945360781735482 0.0667538288933533 0.1439186065142484 0.0388742710912161 0.2486802762783304 )
( 0.1294724543088243 0.0950928896518409 0.0591806285918393 0.1464172539166399 0.0331079183328768 0.236006025087458 )
( 0.1285727299880676 0.0958934588038274 0.0523078447528546 0.1481092211504637 0.0280085262407029 0.2226334460403567 )
( 0.1283582958778238 0.097412802416661 0.0459670524018425 0.1498127870172561 0.0235149093423133 0.207854445389328 )
( 0.1287685411986634 0.0992832172762336 0.0396034368538509 0.1510125396494415 0.019223878040647 0.1923749198411414 )
( 0.130365626500088 0.1016756603370103 0.0333679188620173 0.1515417873734559 0.0150314668489213 0.1762150464073797 )
( 0.1332339383115187 0.1045256270689632 0.0273882456675486 0.1513019867898121 0.0110062922656345 0.1592555124627448 )
( 0.0930253472176019 0.0287500428830195 -0.031097804008558 0.0811829294613393 -0.0159348965767411 0.1761834107467393 )
( 0.0944147343600152 0.0380239913364742 -0.021765427183225 0.08258894462093 -0.0093041105004814 0.164682279949976 )
( 0.0997982539213389 0.0501780076557529 -0.0005687936301331 0.0864240669123694 0.004106249013424 0.1623766551650326 )
( 0.1073315809762765 0.0617757961502644 0.0234888696635169 0.0942791030885585 0.0194676057436852 0.171125409190304 )
( 0.1155213328008681 0.0722525709293991 0.0461544086051027 0.103054387978497 0.0340112891223994 0.1859901522618938 )
( 0.1227123840368619 0.0806894978991949 0.0645292127434095 0.1117353663148546 0.0457423493088337 0.2038053545956394 )
( 0.1267982154229163 0.086752791108826 0.0766705018591867 0.1204015764534629 0.0535908817065967 0.2205675197762547 )
( 0.128256311734173 0.0910518610058121 0.0831069199105195 0.1286315590210814 0.0576830290080522 0.2357228929840429 )
( 0.1278298864806537 0.0932306176097148 0.0841197039295597 0.1353985747617927 0.0576831334240621 0.2467687339995191 )
( 0.1258617289144248 0.0942142052673729 0.0806636608806285 0.1412557215386671 0.0545579163421282 0.2519101377521489 )
( 0.1238178374477702 0.0947601513007532 0.0739545651098368 0.1459200255351797 0.04886333643173 0.2503464598867544 )
( 0.1223683265521222 0.0955099601857211 0.0657299799086323 0.1499977573272262 0.041707184800455 0.2427644545030026 )
( 0.1212003909554585 0.0971111741709647 0.0574848874327422 0.1540828864458697 0.0351662409288288 0.2304696810767866 )
( 0.1206695368701072 0.099067512663641 0.0493450980497381 0.1573094694806889 0.0290720459908501 0.2163073741383009 )
( 0.1210493401783655 0.1014886851757532 0.0422320158303703 0.1600662495589536 0.023728787487714 0.2016427315972062 )
( 0.1223317754753826 0.1046553330581308 0.035713891959589 0.16272232640911 0.0189691251007776 0.1865024726691145 )
( 0.1246714576619644 0.1083636999752783 0.0293559737549797 0.1647227812133256 0.0146269941386163 0.1713984134120893 )
( 0.1286123565456643 0.1128162445836125 0.0236247372752816 0.1659433973197023 0.0106793503980073 0.1560267069908025 )
( 0.1343947369572153 0.1178965523084133 0.0182998502293383 0.1661077608775749 0.0069539092857984 0.1402620853418469 )
( 0.0937022068599658 0.0333556406954366 -0.029528408394596 0.0889051712470851 -0.012729860863109 0.1746464548559925 )
( 0.0973383557948122 0.0433303966052344 -0.0129652846028352 0.0904698811836435 -0.0035476629958084 0.1639536829322342 )
( 0.1041068825775775 0.0565657511517354 0.0138343837482765 0.0955794715067135 0.0127820992870158 0.1641478699877056 )
( 0.1122007969231592 0.0682617922319079 0.0390918303678748 0.103902992737834 0.0291726477868672 0.1743444200733324 )
( 0.1195522598890988 0.078016714142618 0.0606009797072373 0.1125928528469719 0.0436135269048534 0.1897751932819068 )
( 0.1238397389865491 0.0851320295868758 0.0759907121612166 0.1213096145911294 0.0541703477048707 0.2064247483033543 )
( 0.1251370799366532 0.0896657656752033 0.0843983415461325 0.129796913052217 0.0599559992336587 0.2211600321593816 )
( 0.1239365686913018 0.0921815808416582 0.0860938216951182 0.1376752461550066 0.0613069653742043 0.2328480024953182 )
( 0.1205616233757219 0.093134142519616 0.0825683193785995 0.1441833716844778 0.058776194922404 0.2396552303187446 )
( 0.1171954331266444 0.0939376531421997 0.0759473694169084 0.1500771098598031 0.053676894779217 0.2412336973917482 )
( 0.1147632395525248 0.0952119027060453 0.0669377701839202 0.1553718053784845 0.0463548782893011 0.2362166517396099 )
( 0.1134735541086724 0.0972306918633888 0.0572031442135368 0.1605268664044402 0.0383093079705102 0.225761680518716 )
( 0.1133795531057402 0.100056154575977 0.0484919343022829 0.1651983904820238 0.0313929326644592 0.2126030705291474 )
( 0.1143293714941864 0.1035941597473687 0.0404591291331136 0.1692048760874597 0.0251726690598514 0.1981509616286322 )
( 0.1163408820889461 0.1080321200506499 0.0332809641316861 0.1734869599964249 0.0198153258657694 0.1830701063888067 )
( 0.1197594514931136 0.1134013638133149 0.026858187216691 0.1774859450216376 0.0150173385041782 0.1683545138026096 )
( 0.1247026908487979 0.1194681759215119 0.0211562125537341 0.1807473735552925 0.0108820211447796 0.1541551205436969 )
( 0.1313333676117955 0.1261655640893543 0.0161414811103616 0.1828917446377617 0.0072728456934633 0.1401064945402174 )
( 0.1405118458742123 0.1339809018391113 0.0113018664254704 0.1838903056878605 0.0038778152024786 0.1261819030126742 )
( 0.0966434767496701 0.0374382046569116 -0.0234924649045639 0.0963391531283609 -0.0088025819975398 0.1732370777271989 )
( 0.1018708068987515 0.0482400749860068 -0.0009573324258331 0.0987829830053032 0.0025721745835628 0.1636642441597311 )
( 0.1096175704323795 0.0623513253295925 0.0292395967216077 0.1047624586831624 0.0214365226625956 0.1664381419324928 )
( 0.1168086786709781 0.0736285613476399 0.0537235164453777 0.1130160123803353 0.0383719940160602 0.1773297635260691 )
( 0.1214097764017876 0.0818896674655817 0.072319946671326 0.1218476132426446 0.0515411744875537 0.1913762279738436 )
( 0.1225324219240261 0.0875923994618257 0.0835720735735856 0.13070207882308 0.0604131458651127 0.2060284000501865 )
( 0.1210091353811133 0.0904062239770928 0.0873289911953903 0.138405133168405 0.0639409093925072 0.2185027967468489 )
( 0.117165537470974 0.0914798071898542 0.0849174616487554 0.1457396090881003 0.0629031079873698 0.2270046253933208 )
( 0.1122413418088606 0.0920196851907577 0.0784763501111811 0.152349671312519 0.0585503104952531 0.230168578256187 )
( 0.1085330329190742 0.0931274193596554 0.0695559080658303 0.1588038438898654 0.0517329107126546 0.2283148895025577 )
( 0.1063414655375041 0.0953973419152283 0.0591993594241612 0.1652113009361427 0.0433240994025279 0.2212311963259686 )
( 0.1059903591059543 0.0990407879501375 0.0491440522027177 0.1716378745933598 0.0350746554985529 0.2097032144193778 )
( 0.1074289149017829 0.1037332381797431 0.0402428998312731 0.1775894472322118 0.0278525606361242 0.1958844017213259 )
( 0.1104328007647051 0.1093425882028616 0.0324650876369546 0.1828516412786269 0.0215410337576078 0.1813220375738321 )
( 0.1145968893261889 0.1160689115467684 0.0255537503426746 0.188627325086941 0.0162362534489136 0.1669044596151889 )
( 0.1200872393838987 0.1235388178377789 0.019648362312668 0.1941408010662922 0.0117370205130855 0.1534943812961529 )
( 0.1275906873653292 0.1319476948750981 0.0147754143513264 0.1988420952584844 0.0080900568150498 0.1406293352416452 )
( 0.1376458417456989 0.1415845883471937 0.010303320616604 0.2023489036565506 0.0047548802635482 0.1280452858688527 )
( 0.1506398962255264 0.1524422395818593 0.0058432102535231 0.2042570708181731 0.0014905421127094 0.1159759519590422 )
( 0.1009929255542823 0.0414160220342752 -0.0144990605167705 0.1044495737707685 -0.0043343102258996 0.1727367656628524 )
( 0.1070499350479608 0.0528748245311135 0.0117797914118025 0.1073379717544128 0.009627119758454 0.1644520648907942 )
( 0.1144661925498781 0.0671299403970082 0.0427974207244931 0.1135897568916447 0.0296605250295798 0.1684833967941124 )
( 0.1198242231186393 0.0774779917281209 0.0660568442847701 0.1216609708730031 0.046258133442913 0.1795403614656165 )
( 0.1218481177454824 0.0842116482838732 0.0809792122209423 0.1302149087381047 0.057878873865009 0.1923242848395681 )
( 0.1196545543530366 0.0880440402697809 0.0874039917486507 0.1387729623731355 0.0645000473790767 0.2037214327878725 )
( 0.1151008191359501 0.0893978059404117 0.087042343911712 0.1461364247961135 0.0661711517433072 0.21296651329014 )
( 0.1091398390084165 0.0897782920583461 0.0813681571123507 0.1534547129017269 0.0632772118125637 0.2187728756032058 )
( 0.1038253209463089 0.0904517305316077 0.0728426656420496 0.1608413858945603 0.0574242886654735 0.2201390435617151 )
( 0.1005152635896289 0.0922476448842843 0.0626875265217137 0.1678709023638025 0.0496712252646932 0.2159897527687088 )
( 0.0992117568550423 0.0959888440834329 0.0516989655870238 0.1754942663116744 0.0405058939981827 0.2073041292653498 )
( 0.1004433959390688 0.1014933032650757 0.0417102844678631 0.183371991572421 0.0319561964511744 0.1957018807065877 )
( 0.1035463003944519 0.1083839242711542 0.0328618921374443 0.1910409506944486 0.0245502454514842 0.1817097353761822 )
( 0.1085667055005249 0.1164841561704482 0.0253749581654161 0.1985346938981185 0.018288597461166 0.16727691778617 )
( 0.1147738747663269 0.1252953155915823 0.0193070362986548 0.2061001335878623 0.0135108079323458 0.1541552941718539 )
( 0.1224632760881793 0.1349121404751834 0.0141847358211987 0.2131209703052518 0.0094538617863508 0.1422296343419654 )
( 0.1328160116662507 0.1462948401475156 0.0096667254067152 0.2198433520696566 0.0058641728491172 0.1307260108130426 )
( 0.1464371077437362 0.1592585192311848 0.0055219370156369 0.2251945480402232 0.0025436959342673 0.1196208328141242 )