/*--------------------------------*- C++ -*----------------------------------*\
| =========                 |                                                 |
| \\      /  F ield         | OpenFOAM: The Open Source CFD Toolbox           |
|  \\    /   O peration     | Version:  2112                                  |
|   \\  /    A nd           | Website:  www.openfoam.com                      |
|    \\/     M anipulation  |                                                 |
\*---------------------------------------------------------------------------*/
FoamFile
{
    version     2.0;
    format      ascii;
    arch        "LSB;label=32;scalar=64";
    class       volVectorField;
    location    "0.0052";
    object      U_LES;
}
// * * * * * * * * * * * * * * * * * * * * * * * * * * * * * * * * * * * * * // 
 
dimensions      [0 1 -1 0 0 0 0];
 
internalField   nonuniform List<vector> 
13597
(
( 17.4234880054322 1.6480527685987394 0.057037086957786 )
( 17.4224262753156 1.6973593448188855 0.0554447391457748 )
( 17.431763358762183 1.7995375111219392 0.0488386339833081 )
( 17.45069044110201 1.9307458807836224 0.0386361361175896 )
( 17.469220868517453 2.042748098795722 0.0285143046235424 )
( 17.48213382539933 2.136424644874253 0.0192679198191437 )
( 17.498626191293614 2.2294255253498285 0.0098510368519557 )
( 17.518780411655552 2.3277748825649254 -3.865909538539543e-05 )
( 17.542279700389987 2.4260806938009605 -0.0099480945204952 )
( 17.567751061370014 2.524244014826626 -0.0192698789492098 )
( 17.595250371849897 2.6312223971387576 -0.0280806257946795 )
( 17.62804530221416 2.7357454258831786 -0.0364005760521121 )
( 17.663172747810947 2.8369984046634125 -0.0428320573121105 )
( 17.699071375320745 2.9423277042522304 -0.0476851603192715 )
( 17.735757415695495 3.0484531669895643 -0.0516059747892926 )
( 17.774433229142616 3.151857929469152 -0.0539416267749967 )
( 17.815564338961934 3.2489925653517644 -0.0551670987919897 )
( 17.857226245528413 3.343862465788721 -0.0546036271705514 )
( 17.899573061506203 3.440223575421668 -0.0527754820824079 )
( 17.29162349094868 1.6784257544423289 0.0728349081249559 )
( 17.271697314944653 1.7416067581711516 0.0692597147537052 )
( 17.259014884013062 1.8755024431393 0.0560100701557818 )
( 17.250715194160076 2.0286214939848297 0.038523157637534 )
( 17.24347009509383 2.1489500074926524 0.0237886236465058 )
( 17.236123488082118 2.2617796007523343 0.009483637758113 )
( 17.23394741873904 2.375248687818386 -0.0046491802925712 )
( 17.232843333531175 2.4932025538939198 -0.0186320681126898 )
( 17.235848219233247 2.611920621767165 -0.0312173660581461 )
( 17.239454203272555 2.7293092051935908 -0.0418436287780513 )
( 17.24297983856487 2.8563722074661038 -0.0517036125676458 )
( 17.246481061779104 2.987592181039161 -0.0606959493328577 )
( 17.246795265758493 3.1166136620158875 -0.0667442272730604 )
( 17.249015575586697 3.245958376539733 -0.0699559702521548 )
( 17.253001244455483 3.369294153699834 -0.0717007997848554 )
( 17.258043613030036 3.484294364145525 -0.0724075444772648 )
( 17.26278491423281 3.588326576896532 -0.0720495978349976 )
( 17.265797542128478 3.691768397560725 -0.0701034159437019 )
( 17.273204383328054 3.7929457685187 -0.0675338541685492 )
( 17.152817327980586 1.7012420369584569 0.0792423173837372 )
( 17.110616010687806 1.7753711179071074 0.071440194756017 )
( 17.074233090547466 1.9319511394136488 0.0505432325045609 )
( 17.039856950274793 2.102351138347561 0.0260053977969116 )
( 17.00737374695743 2.230976556713346 0.0073826282359784 )
( 16.981284091246977 2.3593694924722715 -0.0097463482077601 )
( 16.95916142726864 2.4903890315986423 -0.0260317194678101 )
( 16.931205728976632 2.62007874023258 -0.0412045429290224 )
( 16.906161533165076 2.752577516770966 -0.0538850979275537 )
( 16.88247322356376 2.8924527157471145 -0.0640178338113802 )
( 16.854707087332432 3.035269292171725 -0.0714059144556883 )
( 16.82552047310357 3.183044795367604 -0.0766578168022178 )
( 16.795392706966226 3.3310282919666467 -0.0793064323369661 )
( 16.76615713599121 3.4693949504971373 -0.0796715866593612 )
( 16.739578779913597 3.593054934907952 -0.0788810088195403 )
( 16.716553419629605 3.701203710149004 -0.0776607723008178 )
( 16.69164590577971 3.796747089112989 -0.0762529172000104 )
( 16.66527572263287 3.890772138357523 -0.0743357147323631 )
( 16.646861788747035 3.987865443690727 -0.0726788269160588 )
( 17.005468630750343 1.715157037812703 0.0776038280956242 )
( 16.942821031608556 1.7998823698302813 0.0641412184482285 )
( 16.886128707747364 1.9698766572726485 0.0370219149476253 )
( 16.827754715141307 2.151143350331157 0.0078449055452338 )
( 16.768632296036696 2.289140777644264 -0.0138637504610597 )
( 16.716538126143675 2.424254366514809 -0.0324001668391935 )
( 16.662727838808824 2.565342829758178 -0.0486366317540433 )
( 16.603503634240624 2.70517261236384 -0.0622506431286245 )
( 16.549683592779548 2.8468461096322373 -0.0725300343261826 )
( 16.497297065090134 2.9954655297185457 -0.0802182582980006 )
( 16.437987407267673 3.147542994655556 -0.0846530135337445 )
( 16.3822963054015 3.3009192084344297 -0.0862383365787276 )
( 16.329464403461472 3.450554558399136 -0.0861251991834174 )
( 16.274788231011403 3.590061644773852 -0.0856906664957575 )
( 16.22237797696284 3.707662689434664 -0.0853436033785755 )
( 16.17445442793595 3.807737176339296 -0.0851368410173652 )
( 16.1287889080581 3.89761382833504 -0.0854029501482778 )
( 16.080605364060744 3.987776297657661 -0.0864873947371689 )
( 16.03588976664137 4.089060579125886 -0.0880963791969303 )
( 16.85910721460311 1.7207123910388742 0.069613642333667 )
( 16.78204919833799 1.8186271313884588 0.050568571404733 )
( 16.703113885826276 1.9997209220906813 0.0189440198166417 )
( 16.61761469501326 2.1822832485613524 -0.0124168187075208 )
( 16.53346630069297 2.323659978322365 -0.0350324893181617 )
( 16.453101507309913 2.461418024399757 -0.053667373073689 )
( 16.367918787241692 2.6064040139133877 -0.0684192851854432 )
( 16.281215552235285 2.750465735135628 -0.0794214425794778 )
( 16.19937231386471 2.891620266574797 -0.0874298980255481 )
( 16.116255372975164 3.0394473514586338 -0.0927441558139753 )
( 16.028469476079568 3.1976645609568632 -0.095824896131849 )
( 15.944632968712988 3.3558336282763257 -0.0970688839580478 )
( 15.863713529248267 3.5056548341237947 -0.0978498446791535 )
( 15.78229010490506 3.643429686692758 -0.0996071722915365 )
( 15.703927290083143 3.754925348188116 -0.1019966680987997 )
( 15.629378767778569 3.8551201217091142 -0.1046378193997433 )
( 15.559602075170025 3.951178225729091 -0.1076363379075177 )
( 15.491412551224665 4.047592337469461 -0.1113338863122072 )
( 15.423976244696258 4.157819064744387 -0.1154109585839268 )
( 16.719190991882517 1.717207297206485 0.0585235904540183 )
( 16.625279095338175 1.8260820352956144 0.0347299589307404 )
( 16.5198595074134 2.018415140907016 -0.0006388279215371 )
( 16.409890033542847 2.199389749955028 -0.0324246984278944 )
( 16.30446455845976 2.339258883018182 -0.0537828934645492 )
( 16.201034541054856 2.4775588826199537 -0.0709129975113014 )
( 16.093624751028933 2.618902522993766 -0.0842831005635487 )
( 15.98169627028321 2.75939363319011 -0.0935675190993417 )
( 15.866528668223989 2.898945181877444 -0.1007945348132923 )
( 15.7502481047105 3.0523493243875435 -0.1060446124291894 )
( 15.63743290089729 3.2127840576951376 -0.1094466993947878 )
( 15.524101050922042 3.370077293408896 -0.1125240646368087 )
( 15.41679829822248 3.521965780541422 -0.1157286719728803 )
( 15.314827264508732 3.658847713365703 -0.1193751052730409 )
( 15.214454731759336 3.772389054350044 -0.1237524487087805 )
( 15.123404992338768 3.8731535825410655 -0.12802738241518 )
( 15.035222826028212 3.9716726148381696 -0.1323078514130699 )
( 14.947943783093608 4.072635025293768 -0.1364225131555822 )
( 14.862205825365104 4.189266883120399 -0.1402017617512704 )
( 16.5779116601515 1.7062884473389437 0.0460725570655706 )
( 16.467808268362162 1.8252192133361884 0.0185891876988299 )
( 16.341362778396384 2.022545418883665 -0.0189180670442405 )
( 16.209907307032463 2.197677683017909 -0.0501443658614099 )
( 16.08406940861002 2.3332739609009567 -0.0709495378537797 )
( 15.956433428625717 2.4667607654862764 -0.0868724092257826 )
( 15.825021531090531 2.604498003788882 -0.0990385809785508 )
( 15.68969554883625 2.7434064345760816 -0.1077490289041464 )
( 15.5477432710604 2.881400645266643 -0.1147347402679925 )
( 15.410943862930086 3.035393386896975 -0.1200610403907767 )
( 15.274690548560914 3.1975987620991155 -0.124674082538185 )
( 15.13475815434679 3.358264083842362 -0.1294641571956124 )
( 15.005884296401112 3.50986557541538 -0.1337903692412913 )
( 14.884528365328382 3.6452330980691783 -0.1378151061330602 )
( 14.765172261517014 3.7644073811962193 -0.1419846376211654 )
( 14.655137355056391 3.865344298304899 -0.1455396673994836 )
( 14.550136128468464 3.964120221304868 -0.1485439020800892 )
( 14.443880664884944 4.07241208493204 -0.1513745531300913 )
( 14.33924436365424 4.195475715165174 -0.1537410076150668 )
( 16.44517868579744 1.690327073480708 0.0332524702863847 )
( 16.31942408966279 1.8119322129953428 0.0027237905074307 )
( 16.17337179616229 2.0069864404565085 -0.0361228884745373 )
( 16.022728355973666 2.1754163856640525 -0.0661232744126798 )
( 15.875302886146564 2.3073017380413456 -0.0865542133981659 )
( 15.72449378818166 2.4389044207741946 -0.1013935054885332 )
( 15.56969714454984 2.574409944981313 -0.1125152258555599 )
( 15.41451258573352 2.707655970491795 -0.1210679685463623 )
( 15.24997235800987 2.844204454856241 -0.1284381729537393 )
( 15.09200774652545 3.001481723488165 -0.1340189268254592 )
( 14.931885690142304 3.1662464222784266 -0.1388992556061091 )
( 14.772569304795631 3.3314345360568183 -0.1433939323100158 )
( 14.62383010393227 3.4849440404456065 -0.1470808218260103 )
( 14.479225123057809 3.616196315300804 -0.1503219433508852 )
( 14.346392134509989 3.731226776742481 -0.1530211726434405 )
( 14.218163513884557 3.834686267685608 -0.1551289184713008 )
( 14.093815215809109 3.9394811363240976 -0.1565881000073677 )
( 13.970146568812911 4.0563300029730245 -0.1576251304080773 )
( 13.84800547906061 4.187030923150662 -0.158027015190956 )
( 16.321444595767062 1.6628357383442638 0.0204432766031947 )
( 16.17857761007265 1.7806165760727255 -0.0125878068266561 )
( 16.012452687638 1.9724733997018813 -0.0519488284217713 )
( 15.845212619249876 2.1344449424351284 -0.08070569857436 )
( 15.67668701739158 2.265669286420396 -0.1000806720992108 )
( 15.508285386355372 2.393512131311049 -0.1141510330355161 )
( 15.336067166482245 2.522473534566522 -0.1245660985176035 )
( 15.162875264590427 2.6581271634814723 -0.1326478401930592 )
( 14.98184469140278 2.799303653200781 -0.1397504994761733 )
( 14.79459099899105 2.954668291436957 -0.1453234444019575 )
( 14.61175603794769 3.121843643502816 -0.1492571740927227 )
( 14.437747948635074 3.2884910017771194 -0.152182076463568 )
( 14.265691698600651 3.442921695770268 -0.1544216499423031 )
( 14.10163426827868 3.574931337584193 -0.1563212736586946 )
( 13.955514847974325 3.687925582709952 -0.1575972655978738 )
( 13.809611935981332 3.795534128021104 -0.1583598609245241 )
( 13.665139658125415 3.9042870187545233 -0.1582489293593786 )
( 13.521752234248616 4.025329032187877 -0.1571205546449515 )
( 13.377595777897715 4.162840474498361 -0.1553534116611366 )
( 16.201037750173 1.630820285554897 0.0067537423709259 )
( 16.043046367619624 1.7510288182101097 -0.0287102998534035 )
( 15.859727758031354 1.9370243652622456 -0.0669903328426013 )
( 15.676016001334462 2.086667894220223 -0.0937783881124376 )
( 15.491574544847513 2.215690259227204 -0.1123696686027546 )
( 15.308177624471483 2.335427735039392 -0.1255078176629701 )
( 15.11668159355056 2.4560656114118986 -0.1349292933118478 )
( 14.919682264602594 2.5916293312190883 -0.1424037429217377 )
( 14.724157839292184 2.733215352864657 -0.1479383462056624 )
( 14.519700282244724 2.8900901586383645 -0.1519948247255178 )
( 14.3181055727501 3.0642712949260584 -0.1550014154298767 )
( 14.125872577873064 3.235554080313276 -0.1567818526440792 )
( 13.936484639190368 3.387662303911505 -0.1575826155457642 )
( 13.758874452245584 3.5212984374062537 -0.1579094350521507 )
( 13.592087562064467 3.636214470439834 -0.1574839907811535 )
( 13.42454240332598 3.7438220898258914 -0.1563448622697428 )
( 13.255977946918184 3.8538307553134334 -0.1544884703423137 )
( 13.089861539633873 3.977013902954007 -0.152167033966647 )
( 12.924592878328204 4.121735030453365 -0.1502477588932256 )
( 16.090552340119604 1.596580768366214 -0.0076829356051233 )
( 15.921261902499854 1.7182147038641944 -0.0437669533903333 )
( 15.716742303408695 1.895565347978032 -0.0803556398511515 )
( 15.52112302029471 2.032355596582533 -0.1050264549924085 )
( 15.323784248459186 2.153436072749433 -0.1224415927354545 )
( 15.121610090861369 2.268077687814036 -0.1344467663957103 )
( 14.913279646066847 2.3820023418700798 -0.1433140602157254 )
( 14.701196662718369 2.510506857717404 -0.1498078893533681 )
( 14.487326287532431 2.6567998190070163 -0.153318666739033 )
( 14.269203245238952 2.818510450161225 -0.1554520272532735 )
( 14.049830631123202 2.994326885595678 -0.1570011125176645 )
( 13.833300295201916 3.1723025587967184 -0.1572283623486846 )
( 13.631458414179791 3.3238867238224987 -0.1568091035466679 )
( 13.4391438452725 3.458173860581186 -0.1557620990270434 )
( 13.246525571146186 3.5749479135848303 -0.1538052556354402 )
( 13.05322677380942 3.681341171656137 -0.1514795223449087 )
( 12.861705948375809 3.7934427351727766 -0.1495123159374847 )
( 12.677061999621644 3.921026230935774 -0.1482293781815967 )
( 12.490505766355913 4.073945992523879 -0.1472550551466885 )
( 15.985069691131557 1.555851272830563 -0.0219209174837062 )
( 15.802462755956986 1.6764273889583694 -0.0575838527957362 )
( 15.580402125962326 1.846314995424952 -0.0926274900506569 )
( 15.374444020142391 1.9698957500213652 -0.1149989301413691 )
( 15.16379822961882 2.079190670021753 -0.1306280436950772 )
( 14.94522682110415 2.19096677155607 -0.1416768477691261 )
( 14.727771213257029 2.309136338316416 -0.1494994593182864 )
( 14.502452533823934 2.438243734732333 -0.1541439487606988 )
( 14.27109207670002 2.586499615395317 -0.1556764728557278 )
( 14.035676608403616 2.748006281174793 -0.1563108390945667 )
( 13.799026849583989 2.9210701641643317 -0.1562403417870313 )
( 13.563201023851912 3.095588097618948 -0.1548604478190583 )
( 13.33975782416303 3.251293609230713 -0.1533666751927888 )
( 13.124713360196855 3.3920779828770518 -0.1517574455923316 )
( 12.907919785986842 3.5087365504386705 -0.1496539066556348 )
( 12.695729451655716 3.6117609797958026 -0.1477752133405057 )
( 12.488760634918211 3.725574609596625 -0.1466274608137179 )
( 12.284890847161616 3.863319838349753 -0.1457245939859778 )
( 12.076475245069211 4.026749189291578 -0.1432952060324958 )
( 15.88385537482776 1.5045596869863498 -0.0348395664268642 )
( 15.689635560395942 1.6234656752861334 -0.0695423070350455 )
( 15.45810283139812 1.7875420868214174 -0.1031675926486138 )
( 15.237578369689174 1.9047536650550756 -0.123948524174689 )
( 15.01611192862848 2.012112123640467 -0.1379391761169598 )
( 14.787362619708578 2.121954078110067 -0.1470076186777631 )
( 14.557837523476037 2.239212745759314 -0.1526600369625839 )
( 14.315840131808311 2.3654774106906347 -0.155387583419106 )
( 14.067352895231112 2.50858682714344 -0.1560989558284333 )
( 13.818128641845217 2.673183528303159 -0.1554707653452654 )
( 13.56188496550324 2.852290999649463 -0.1540637619628928 )
( 13.308069195565556 3.02368617372443 -0.1523718301565424 )
( 13.059622683696684 3.179287167521704 -0.1499147154226114 )
( 12.81603883824316 3.3191425328049533 -0.1479594002910736 )
( 12.584006595789877 3.429954272291872 -0.1468248991483534 )
( 12.361529581760816 3.534499466552856 -0.145424258205901 )
( 12.13689611016064 3.654650487736328 -0.1433284507431808 )
( 11.908553345378362 3.799714071804965 -0.1403741412985513 )
( 11.670934666943696 3.9781702928061295 -0.1349366418503025 )
( 15.7914601710736 1.4437468852229105 -0.0468098675847202 )
( 15.591328378941895 1.5609646172298532 -0.0797518060894082 )
( 15.347319221806265 1.721145394617214 -0.1112652967840231 )
( 15.113750953992028 1.8348266671290512 -0.1305279264536195 )
( 14.881480769767244 1.9407889209160527 -0.1427802511716946 )
( 14.646322285419814 2.045514669295373 -0.1497696440404166 )
( 14.403556518978975 2.1590803400162706 -0.1536318424399136 )
( 14.15192107962649 2.284382600877459 -0.1548444728675591 )
( 13.886792506556125 2.424680867211887 -0.1546034818098799 )
( 13.616973002393127 2.590206918536935 -0.1530286950473803 )
( 13.339775565098288 2.7727796170486503 -0.1508543112196761 )
( 13.061793864022665 2.9495977505208284 -0.1492964379470067 )
( 12.792388985163225 3.107152583280838 -0.1469929194353409 )
( 12.532990707244627 3.2377964784677737 -0.1451623949798293 )
( 12.286034698208278 3.3446069385328427 -0.1440693082008972 )
( 12.042817459465308 3.4569696921420734 -0.1416776590070366 )
( 11.795700342583904 3.589827727816922 -0.1378875359544965 )
( 11.5379532615643 3.738017591124541 -0.1323628901259624 )
( 11.261860133513984 3.9230235443667887 -0.1248268293926181 )
( 15.70815847088571 1.382957437652501 -0.057244259550911 )
( 15.497404486688946 1.4989518410189298 -0.088239643693374 )
( 15.232414538301246 1.6555989034854293 -0.1188858764110329 )
( 14.991927445242991 1.759962509769029 -0.1352170940118188 )
( 14.75509566296893 1.8598462151010375 -0.1457066757668311 )
( 14.513839495709538 1.962128085815147 -0.1514635932340088 )
( 14.258700181802345 2.0725920043421078 -0.1532994294645497 )
( 13.992100263241236 2.199175675126332 -0.1531085842320917 )
( 13.71507849262259 2.3389584873359133 -0.1517976336328183 )
( 13.42720522200636 2.500380891163432 -0.1497504684407018 )
( 13.12590353761014 2.6845859110758705 -0.1476260460847741 )
( 12.822674484462544 2.8624617486394177 -0.1457115925218098 )
( 12.531484780410276 3.0221632967894627 -0.1437122608569187 )
( 12.2615734463571 3.149698906616006 -0.1421090781228714 )
( 12.001157209748044 3.2571404273148667 -0.1397173120260478 )
( 11.735687158830055 3.3748814770398425 -0.136028487951587 )
( 11.457769815801244 3.514072904317288 -0.1309042269543737 )
( 11.163777958565262 3.674993245610042 -0.1238184764934573 )
( 10.862102910732755 3.879880393067949 -0.1163491798569447 )
( 15.63043497191498 1.3242558418834631 -0.0659634490146499 )
( 15.409370195536056 1.4370085925672769 -0.0949724102985238 )
( 15.131008169462596 1.5868289220799727 -0.1238276216059573 )
( 14.883661999875663 1.6809819575074116 -0.1380668974078931 )
( 14.641530203150564 1.7719713752442263 -0.1467316174383853 )
( 14.39128810062755 1.8786372667814624 -0.1513147933154953 )
( 14.125543808050413 1.984438439064484 -0.1518949125558062 )
( 13.841780565482852 2.1038306300364304 -0.1505445632550604 )
( 13.54888975205203 2.2480519835527613 -0.1486323325190641 )
( 13.243958731446869 2.4068367523526573 -0.1465272282116658 )
( 12.915265949797291 2.595057078032488 -0.1446921188112838 )
( 12.585581862426356 2.7776783118066684 -0.1422585370140577 )
( 12.283798983121558 2.930097580799861 -0.139879760951771 )
( 12.006634736717544 3.05464363793113 -0.1375019157849598 )
( 11.729467659585344 3.1674639370342774 -0.1339248026199175 )
( 11.438247737434844 3.290242413782765 -0.1294606954258992 )
( 11.125443795089687 3.4338080950913485 -0.122429906577496 )
( 10.79761113339351 3.613066195333265 -0.1161846008062044 )
( 10.495038914950404 3.859787009315545 -0.1117984522373505 )
( 15.559524780087353 1.2653166892005243 -0.0726307394724433 )
( 15.325734742188512 1.3708416937659829 -0.1010138818219359 )
( 15.039814086304126 1.5165009155278952 -0.1270872876357829 )
( 14.791171317099051 1.605929290534519 -0.1396868956346908 )
( 14.540647595573615 1.6922059990836065 -0.1462689790508871 )
( 14.275474256390952 1.7947365628100085 -0.1490362967226161 )
( 13.997431784797064 1.8933606840091608 -0.1490632878987044 )
( 13.70768575590427 2.0111098064092885 -0.1475276059076693 )
( 13.397153973416543 2.157478959947021 -0.1454771673638127 )
( 13.068276456824623 2.3107218507362197 -0.1434980857939279 )
( 12.72716307105734 2.494251442099849 -0.1414186130664616 )
( 12.37856421349934 2.689342988318137 -0.1385689683764135 )
( 12.063222634187944 2.839859496898197 -0.1354679379105784 )
( 11.769218740245588 2.957765450430886 -0.131920030914453 )
( 11.46500763901505 3.0757412693138075 -0.1282907247754866 )
( 11.13818151160178 3.199986774573089 -0.1231807462077717 )
( 10.796047081365428 3.355075233885509 -0.1167926346448722 )
( 10.460470186107235 3.562001003889357 -0.1133900857264026 )
( 10.176741177660086 3.8592651898096992 -0.1102349394852493 )
( 15.490912686657246 1.2050539682321595 -0.0784601652578996 )
( 15.2485945829161 1.3033556253660956 -0.1053954560705941 )
( 14.955839931444183 1.4410965206802455 -0.129128417192694 )
( 14.706884418028142 1.5262553476632834 -0.1398366275437652 )
( 14.449169316412783 1.614247502550461 -0.1449050157968792 )
( 14.17065916870361 1.7117580383855584 -0.1464049243753426 )
( 13.884019043237132 1.8000335295330467 -0.1457224339725309 )
( 13.58242772238923 1.9198366475306805 -0.1439846186185499 )
( 13.252844631152565 2.068528903009479 -0.1422350120814464 )
( 12.905200885216706 2.2236804048851084 -0.1397243434089683 )
( 12.544465205135902 2.3978277252813114 -0.1365727206732475 )
( 12.181426121778568 2.579229483937583 -0.1333483302943808 )
( 11.85184783432625 2.7330364499812947 -0.1302088375875743 )
( 11.532374673198856 2.85824616210049 -0.1263736977592365 )
( 11.199041726447438 2.971302705359898 -0.1226157652407241 )
( 10.846356952695798 3.099501218516452 -0.1182340917756128 )
( 10.484651834759468 3.2713192751785147 -0.1141052166768932 )
( 10.161107181235389 3.521891238722647 -0.1126901162316474 )
( 9.873130366007851 3.875824861146903 -0.1099299898451426 )
( 15.429163177765762 1.1418536341887968 -0.0833621902655035 )
( 15.18108550731959 1.232984002240317 -0.1081479276626517 )
( 14.878921180478098 1.3590393233310956 -0.1297945327338207 )
( 14.628234747284887 1.4437763607247018 -0.1388480162778917 )
( 14.362508475456822 1.5288701412398602 -0.1427056377678764 )
( 14.071274712962296 1.624077724033864 -0.1436805067321308 )
( 13.784152514757746 1.7135024115642146 -0.1424488118532685 )
( 13.468620260061908 1.824374460375544 -0.1399062979584746 )
( 13.11723142042899 1.9710242719675777 -0.1381266363921069 )
( 12.748761699273814 2.131751518404544 -0.1353582667335074 )
( 12.362708689477552 2.305743396113033 -0.131805288432412 )
( 11.993262411583933 2.47405775478761 -0.1288925273131582 )
( 11.643669364115611 2.619854946799604 -0.126104569408531 )
( 11.29476562297504 2.748898931020048 -0.1217675211041819 )
( 10.943165660717897 2.867040736116346 -0.1171280419702184 )
( 10.574362239392036 3.009510576621764 -0.1133474422499744 )
( 10.203043922466684 3.2064347376437987 -0.1115582016809409 )
( 9.881348152186058 3.4961501757099773 -0.1116367089160229 )
( 9.501304950838191 3.856260918783628 -0.1106549547222768 )
( 15.377141525302283 1.0771462292898208 -0.0861312662055941 )
( 15.11785448952098 1.1572575271936576 -0.1092837720976002 )
( 14.808408755407928 1.2759875518025643 -0.1292846355813377 )
( 14.553393619284442 1.3595954901154912 -0.1370476023212825 )
( 14.280889485127789 1.443606449010579 -0.1399502244975921 )
( 13.980204547048052 1.5408014956824865 -0.1400981576735896 )
( 13.681728208425715 1.628578312458876 -0.138238034465563 )
( 13.359546676060464 1.730341195603856 -0.1355715740254234 )
( 12.996436024682382 1.8689739187052123 -0.1335063477400543 )
( 12.606178987402306 2.023965171126697 -0.1307566306544672 )
( 12.200544180781364 2.2031279768222505 -0.1279645478578691 )
( 11.817534900758409 2.3752514745190165 -0.1258687181014134 )
( 11.443254330130804 2.512700182332688 -0.1229460164498241 )
( 11.072643104879637 2.6346072371954725 -0.1184588613853809 )
( 10.69560634003878 2.770552824690973 -0.1129165048424984 )
( 10.31208645204854 2.929065859816351 -0.1089454448270731 )
( 9.945001056208293 3.1521255576868925 -0.1096344334869368 )
( 9.568767393263792 3.4706356773519333 -0.109854074251981 )
( 9.01689989784667 3.7710296944288633 -0.1096357470973289 )
( 15.32626280466996 1.0076242648556064 -0.0879395747086858 )
( 15.062536724200204 1.0847439045424894 -0.109523451319144 )
( 14.750894854672657 1.1961757762919072 -0.1274102679497231 )
( 14.486390512291637 1.269554076469831 -0.1337532725138308 )
( 14.207339077023663 1.3547607442141845 -0.136084393004559 )
( 13.900866305195793 1.4563503365714916 -0.135656769566162 )
( 13.58854595869473 1.538104616396748 -0.1333827188246776 )
( 13.260334962146166 1.6327980013224626 -0.131286629625569 )
( 12.878358030701202 1.7689946338206437 -0.1289009403610182 )
( 12.470643667881168 1.9217273285728065 -0.1258645229810824 )
( 12.049663047901197 2.0959524118190616 -0.1241602013698821 )
( 11.638778188433326 2.26766356567402 -0.1221835352463249 )
( 11.25155278080194 2.410304846877664 -0.1187808215573082 )
( 10.873988647833142 2.530725782404895 -0.1150672968325666 )
( 10.471922434752088 2.6748083187810017 -0.1111433406883679 )
( 10.065526339558986 2.85056729639707 -0.109593275575678 )
( 9.693219201485052 3.096229239562977 -0.1094029420055035 )
( 9.225217167738222 3.4204947801970467 -0.1089841809335829 )
( 8.406608697566508 3.6002214691381496 -0.1074104892805083 )
( 15.277544361601162 0.9363242422629892 -0.089537226186002 )
( 15.013337907722702 1.0139970684516475 -0.1087367467578653 )
( 14.69829906033603 1.1215127012905388 -0.1247533876697751 )
( 14.429049935746251 1.190121299795862 -0.130377372183025 )
( 14.140416231078785 1.2707703170072062 -0.1320253860151729 )
( 13.82049005589773 1.360542218720752 -0.1309179316619272 )
( 13.498240246567464 1.4407037331470018 -0.1284012010587618 )
( 13.163658152214074 1.5322055282014744 -0.1264943152082504 )
( 12.75639552014501 1.6657752706795406 -0.1241875741711445 )
( 12.331443475296377 1.8232820849652287 -0.1217123413386939 )
( 11.907073290117356 1.990571329577864 -0.1207477090573861 )
( 11.484223986080488 2.161802054068039 -0.1182399776911406 )
( 11.08144885606896 2.3116664131533318 -0.1147894586697863 )
( 10.677358951181237 2.431083737811431 -0.1112185039100555 )
( 10.263520840277238 2.573724289481751 -0.1087111627293204 )
( 9.845706022934662 2.766047531513017 -0.1092420798130863 )
( 9.417418668555388 3.0359174940021427 -0.1098606381269944 )
( 8.876645586821455 3.352604556387285 -0.1115829893352253 )
( 7.6219214407912546 3.3068598835935448 -0.1027456501826051 )
( 15.232702458413709 0.8721870114285172 -0.0902643797115618 )
( 14.964401955655983 0.9443357801199566 -0.1074768146681918 )
( 14.646999029789896 1.0468618329377402 -0.1220729787109573 )
( 14.377256849717176 1.1151039066292951 -0.1270351969568726 )
( 14.078638429187327 1.188420266424833 -0.1275356602852679 )
( 13.752122845554448 1.266911239575606 -0.1262616148434178 )
( 13.421132298930155 1.351183111059418 -0.1247854422706757 )
( 13.068648686890697 1.447762583391373 -0.1226851143278646 )
( 12.6422554187731 1.571112471091202 -0.1201358067921601 )
( 12.195718784779876 1.7260837739961044 -0.1182240018215139 )
( 11.76448188906406 1.8862834720605044 -0.1170310077994302 )
( 11.34174262429898 2.042970113168537 -0.1148640151539929 )
( 10.922564125170766 2.189097128484247 -0.1119783535757437 )
( 10.490841975802192 2.3176082164204512 -0.1082588586208137 )
( 10.057829825681305 2.4663577456640904 -0.104558716088439 )
( 9.62538706355534 2.672959447036246 -0.1045488483304115 )
( 9.120665975152816 2.956572930596057 -0.1074094339943155 )
( 8.372693532612312 3.191728521709444 -0.107491795490265 )
( 6.847035654153012 2.975307444826739 -0.0936505419559743 )
( 15.195058994885306 0.8066858291743577 -0.0895231490556434 )
( 14.922224060550406 0.8758965204611653 -0.1057243317367095 )
( 14.597700255663284 0.9732679443137242 -0.1193770006628152 )
( 14.32515064432459 1.0346678657966244 -0.1231515175570491 )
( 14.020889477020395 1.1075500969286602 -0.1224897179410389 )
( 13.694402872885552 1.1891817736334858 -0.1215990157842413 )
( 13.35988093327304 1.272039299872359 -0.1215334601813539 )
( 12.985400326469769 1.3634121316864876 -0.1191462223998395 )
( 12.547559424868794 1.4824125132004091 -0.1164408703002821 )
( 12.092277382700356 1.63230665412122 -0.1150287454309426 )
( 11.642656445808496 1.7868507769301665 -0.1139907553231047 )
( 11.196052934497908 1.9288532611212443 -0.1121608163258651 )
( 10.757369368086318 2.062814877586358 -0.1100482767887318 )
( 10.309906871935564 2.195104102675427 -0.1078472465433575 )
( 9.862314854793688 2.35804212252142 -0.1047056690783009 )
( 9.396776591503608 2.5916198453105923 -0.1052676146181023 )
( 8.828841869935845 2.867763362695645 -0.1059087221381514 )
( 7.810670897483088 2.957117849312365 -0.0997462396233798 )
( 6.172134862557698 2.657433103224756 -0.0861894528654684 )
( 15.163357711466237 0.7382347265153151 -0.0885000951049235 )
( 14.890430025003177 0.8070420836627746 -0.103101914623894 )
( 14.557199135312535 0.9014525125038706 -0.1158129012324002 )
( 14.27688197174994 0.9563775851155908 -0.1187354761895393 )
( 13.966041816471993 1.0246216458813349 -0.1178843200974482 )
( 13.6356108489938 1.1052069225287429 -0.1170542160521486 )
( 13.295154064672484 1.1759665653248337 -0.1165229235305157 )
( 12.908683998711131 1.2644769842029533 -0.114429218973956 )
( 12.469683717510264 1.3929306296105823 -0.1125785550175072 )
( 12.006828617939732 1.5375609415219698 -0.1121888906145931 )
( 11.533832632580904 1.6897964340534133 -0.1122072266644789 )
( 11.06312799595903 1.8199185445244463 -0.1100198296468973 )
( 10.605659904474004 1.94309954038004 -0.108939213721101 )
( 10.132309063716722 2.0772485478269256 -0.1081766354034773 )
( 9.669339518453294 2.248432706352667 -0.1066995019285499 )
( 9.149871547095431 2.496125240020485 -0.108486539881756 )
( 8.499545637384713 2.74289757616742 -0.1073889392076008 )
( 7.330198023852728 2.721816985767373 -0.0958074823744117 )
( 5.541888967474989 2.331679508343324 -0.0787642896559186 )
( 15.135326323522074 0.6787938389587246 -0.0878434320856928 )
( 14.860812019828623 0.7415810987403535 -0.1005267281115673 )