/*--------------------------------*- C++ -*----------------------------------*\
| =========                 |                                                 |
| \\      /  F ield         | OpenFOAM: The Open Source CFD Toolbox           |
|  \\    /   O peration     | Version:  2112                                  |
|   \\  /    A nd           | Website:  www.openfoam.com                      |
|    \\/     M anipulation  |                                                 |
\*---------------------------------------------------------------------------*/
FoamFile
{
    version     2.0;
    format      ascii;
    arch        "LSB;label=32;scalar=64";
    class       volSymmTensorField;
    location    "0.0033";
    object      tauij_LES;
}
// * * * * * * * * * * * * * * * * * * * * * * * * * * * * * * * * * * * * * // 
 
dimensions      [0 2 -2 0 0 0 0];
 
internalField   nonuniform List<symmTensor> 
13597
(
( 0.1999900441271193 0.0757197620331689 0.0039498720521577 0.1128234644779781 0.0323083992535016 0.2810358541367593 )
( 0.204773922255439 0.0790964546475069 0.0041283679829387 0.1165451406395141 0.0343430688786924 0.2738615209658433 )
( 0.2138237421696773 0.0843925033981352 0.0031607139441317 0.1227118492000093 0.0379720134977349 0.2588609653251573 )
( 0.2264200844624849 0.0906716158905505 0.0015875991545718 0.1311938289732592 0.0421256579865474 0.2405289079815507 )
( 0.2375884636558605 0.0956862825160089 -0.0001977068346889 0.1388336356799527 0.0448031666399112 0.2237096643705177 )
( 0.2469563270768508 0.0991962993871601 -0.0021729482120528 0.1454577528923905 0.0464095499432225 0.209116392390804 )
( 0.2560779736201795 0.1024719445585967 -0.0046626951833836 0.1519325839627072 0.0475465435669573 0.1957714723885134 )
( 0.2651844191909798 0.1061476479972472 -0.0072948550046284 0.1583688670695505 0.0480939161712673 0.1821890991984356 )
( 0.2746062363149451 0.109825115014502 -0.0095191951716358 0.1648959977957692 0.0486891523210558 0.1704152993981256 )
( 0.2837574741193112 0.1133516242763435 -0.0121907311645871 0.1714990166502207 0.0491623208167075 0.1599397984417725 )
( 0.2931676571020764 0.1169024764253655 -0.0148187370476117 0.1791418812611019 0.0495799489767052 0.1497812279809144 )
( 0.3031697455177142 0.1205117122234845 -0.0167902806459032 0.1866735803843403 0.0497884139459859 0.1414166848636288 )
( 0.3122217380786516 0.1240057146368042 -0.0185076794050227 0.1929012866266569 0.0497333352323038 0.1344660590033694 )
( 0.3207315525819947 0.1275124809598572 -0.0203848917460616 0.1992669334910772 0.0496991903333262 0.12784860715875 )
( 0.3294624912040804 0.1308565769471994 -0.0228242460182278 0.2055043412009228 0.0489255949137441 0.1217626066352845 )
( 0.3375863712012373 0.1341274571059194 -0.0248334996384112 0.2102712704605051 0.0477253700109038 0.1167269466757096 )
( 0.3447701759647128 0.1369082786309327 -0.0256197375296868 0.2136928219039319 0.0465640424299442 0.1118201494497143 )
( 0.3506242564472819 0.1386736306202439 -0.026128189670508 0.215574214511733 0.0452267925089228 0.1072367461500302 )
( 0.3566425057751132 0.1408696339139487 -0.0271745841566927 0.2164968282639526 0.0433128880036053 0.1030774707158477 )
( 0.2136425902675996 0.0914490117625411 0.0040113568956923 0.1295734481875704 0.030893901549411 0.2698546857674198 )
( 0.2202172837834812 0.0975242010864826 0.0020536998993984 0.1352617788861112 0.0313949713190901 0.2607259542089939 )
( 0.2320779301789355 0.1050485476666635 -0.0020258983915529 0.14376965950892 0.0324960817066755 0.2421292154423016 )
( 0.2479798855750424 0.1127242774068182 -0.0053249488126261 0.1547075498602409 0.0333919212730008 0.2225747952146578 )
( 0.2601731702207984 0.11825838544476 -0.0088682007622503 0.163308988344459 0.0329542850071784 0.2053167598694736 )
( 0.2705680268481295 0.1222869844438763 -0.0122874659275352 0.1710854147577582 0.0323087750139305 0.1892475867888201 )
( 0.2797711785446955 0.1258782717283894 -0.014959651335742 0.1786577439901398 0.0314262750035256 0.1737249568802154 )
( 0.2888704630423455 0.1292964390271833 -0.017654875586929 0.1864067537375936 0.029914901090729 0.1591106415326915 )
( 0.2980328646619767 0.1320815320851939 -0.0193221767753092 0.1935914747611923 0.0288654630281021 0.1468674495582572 )
( 0.3054516818194105 0.134118877797675 -0.0202661908098572 0.2003785570424219 0.0276239968944844 0.1358791040813112 )
( 0.3116382519718235 0.1354245242454659 -0.021095113109129 0.2075838649218712 0.0260333372879692 0.1257362267324266 )
( 0.3170660130852097 0.1362769623763125 -0.0213749534999144 0.2146608002120981 0.0240642684496219 0.1168391716739644 )
( 0.3200944098003268 0.135734278540138 -0.0214147595963809 0.2202908136628157 0.021626456618781 0.1105897577227273 )
( 0.3211614143357479 0.1345861190258157 -0.0210777642404005 0.2252393648168983 0.019194024377227 0.1062313661959244 )
( 0.3213664604194151 0.1334229193736581 -0.0204159197655617 0.2295882221252833 0.016390016285747 0.1035023134036099 )
( 0.3203921992600363 0.1317050874858545 -0.0204164611192724 0.2324684585559838 0.0130056572233976 0.102023436398219 )
( 0.3184368996283637 0.1296794514979946 -0.0202673251586492 0.2343991720093989 0.0096423103256419 0.1009431871725646 )
( 0.3151337601297342 0.1270516642007614 -0.0201313679547341 0.2358794186664345 0.0059708932451162 0.1007585406651428 )
( 0.3117659951733902 0.1249085696124647 -0.0202447121309692 0.2369133233323749 0.0021039962836238 0.1013351144539954 )
( 0.2239243444205941 0.1073781863043693 -0.0024946830896279 0.144903170115644 0.0293237120805439 0.2663683366250387 )
( 0.2317218786285062 0.1143201412545065 -0.0075956194643802 0.1519736205808165 0.0286306221610378 0.2566094292483913 )
( 0.2453980257898776 0.1214888304666546 -0.0140001001119631 0.1614346806130293 0.0271564763061872 0.2349782073903757 )
( 0.2616639096178723 0.1278244069476617 -0.0187062731328962 0.1724620766971917 0.0254731856904886 0.2133901447194624 )
( 0.2727430394608268 0.1316666330526301 -0.0228734490630727 0.1804456830298861 0.0232410378613261 0.1960468166219782 )
( 0.2819372712167455 0.1335011924623224 -0.0258300405368646 0.1873483251194478 0.0214325851703695 0.179881197294444 )
( 0.2886524308415726 0.1339772664940773 -0.0272277200893573 0.1936985823772284 0.0193407912118994 0.1640689963528754 )
( 0.2934802642665444 0.1333827426499627 -0.0279531321243238 0.1993827557217729 0.0167488549963516 0.15095003040737 )
( 0.2972945999834188 0.1312226729828652 -0.027545196915297 0.2044292180454088 0.0146646561964931 0.1402269937404402 )
( 0.2986683520729099 0.1281551333028046 -0.0258580755796565 0.2094644500032777 0.0121964831115186 0.1305111476402277 )
( 0.296316719185656 0.1239667061502053 -0.0242087221552377 0.2134565903210183 0.0093647524382261 0.1236486753601402 )
( 0.2928220728334947 0.1188989143353984 -0.0225252988537312 0.2173912842593703 0.0060389217677831 0.1199029291211013 )
( 0.2878010668859582 0.1128696051103859 -0.0213238249825037 0.221257221504679 0.0018262788031851 0.119309053319217 )
( 0.2809154463513696 0.1069542877808489 -0.0206346670968901 0.2245580307268213 -0.0027818842557044 0.1204973179166687 )
( 0.2744190827091268 0.1022831915837365 -0.0197598506867269 0.2274907175283042 -0.0072715356260436 0.1226413072852116 )
( 0.2684170221151958 0.0982270025927636 -0.0198206734529316 0.2299508946315397 -0.0118488771001208 0.1253587905362049 )
( 0.2623909766229096 0.0949741397435371 -0.0201489275680124 0.2321236820735431 -0.0163850218370902 0.12826080152798 )
( 0.2564445333435081 0.0924048373731341 -0.020352585107766 0.2343561788161653 -0.0207379193204001 0.1314896940317815 )
( 0.2510946810398274 0.0907641636174109 -0.0205900180187005 0.2370381469145653 -0.024969691069862 0.1345367964693588 )
( 0.2301106275949095 0.1199164678946334 -0.0126666704324281 0.1581864422450794 0.0273536467989168 0.2655928478140921 )
( 0.2380522815681154 0.1260704277456665 -0.0204615104916101 0.1656614056747829 0.0252907728352944 0.2538603640937847 )
( 0.2515856229379422 0.1306342735570628 -0.0284480239077018 0.1740798699168742 0.02153084624768 0.2294807660988437 )
( 0.2646866448939894 0.1327958841814926 -0.0330453223008839 0.1825935277955273 0.0180555990271967 0.2066885373323488 )
( 0.2710566880491101 0.1323391177454859 -0.0350687575794794 0.1881442703403577 0.0149965694575734 0.1894895166420811 )
( 0.2744821758612252 0.1295169613940151 -0.0347703491618045 0.1920436975444196 0.0126148595374617 0.1741612650270197 )
( 0.2755448926161801 0.1248121672366873 -0.0328295089495577 0.1949734835394735 0.0103955813635777 0.1601571172118686 )
( 0.2739808938745406 0.1192134016875559 -0.0290077624358831 0.1972175194372245 0.0078597666634819 0.1493500016816752 )
( 0.2705937079915508 0.1128436399663417 -0.0247515481810515 0.1994572305172411 0.0054824035531178 0.1414917293154913 )
( 0.2663880223973186 0.1060561454382327 -0.0203847565913653 0.2023917139916661 0.0027843598204919 0.1357584517011587 )
( 0.2596102603049803 0.0987387749691693 -0.0167564175924013 0.2044142993672482 -0.0007694366144828 0.1327925510853164 )
( 0.252061246058806 0.0920201293451696 -0.0137171593827001 0.2073910268383865 -0.0050769486957439 0.133030786249659 )
( 0.2455416163613966 0.0870487956880619 -0.0110505356908642 0.2116441081505711 -0.0103095324708534 0.134447075869258 )
( 0.2401062601893853 0.0834766508213164 -0.0093629908935626 0.2160425708087903 -0.0158231319608953 0.1378592212348852 )
( 0.2360534378488755 0.081684291615903 -0.0077277753350641 0.2206488733403354 -0.0207081839549582 0.1421439294639151 )
( 0.233386705440103 0.0818726154067408 -0.0061736373773413 0.2255261251862296 -0.0251760806471881 0.1455332869392842 )
( 0.2313904187689228 0.0833045788748326 -0.0046404644183723 0.2303222579342946 -0.0289790575915678 0.1489475125968332 )
( 0.230535646419649 0.0858659839743126 -0.0028357614446657 0.235630811057659 -0.0325292285952676 0.1526742141617533 )
( 0.2305547278131265 0.0899231186708473 -0.0009408899367992 0.2417838187986923 -0.0358506349809785 0.156602180057948 )
( 0.2320229030789041 0.1276083229440833 -0.0249138539986624 0.1687815275765813 0.0245642648915706 0.2642775928937032 )
( 0.2380425321459487 0.1307750448710993 -0.0328403843155619 0.1747093506802627 0.0209647694867309 0.2488664614229724 )
( 0.2481584002245881 0.1311060522613292 -0.0389312860955354 0.1806431443557723 0.016208653406755 0.2225986717409231 )
( 0.2556236500282319 0.1286098812036381 -0.0394717629117581 0.185898418676364 0.0119360323306909 0.1992052021405593 )
( 0.2556860518960751 0.1235339587387342 -0.0361523492299455 0.1877141982831739 0.009095890748734 0.1819468384985553 )
( 0.2540828992041165 0.1168588586538833 -0.0304548917790006 0.1881931254990626 0.0069819312146909 0.167222218344172 )
( 0.2507061447327401 0.1090459241930711 -0.0230088703568392 0.1882483977091262 0.0055289719611229 0.1540673083670501 )
( 0.245067303585257 0.1009895432229155 -0.0148630313877711 0.1877012471353554 0.0041130984333292 0.1449791565437567 )
( 0.2400014018838398 0.0941379332596436 -0.0080097187307424 0.187916384950161 0.001510815222324 0.1391147600288044 )
( 0.2358404021291767 0.0881583144594566 -0.0024254674914595 0.1897303957798877 -0.001971944111072 0.1359380256602763 )
( 0.2321989394813541 0.0836815598557872 0.0023641406598968 0.1934823331951317 -0.0067914368708538 0.1356010241365074 )
( 0.229043646889773 0.0817917138028506 0.0069520580643343 0.1993109153165942 -0.0121769504398697 0.1376439649530569 )
( 0.2274052983410008 0.0827465111520131 0.0106789626572703 0.2065955528281472 -0.0177396225623607 0.1412488671553961 )
( 0.2276645145216204 0.0860857706385067 0.013459638276111 0.2148873040349965 -0.0232902369416584 0.146491475739673 )
( 0.2289407514348707 0.0909251714490511 0.0163888443675844 0.2228914103435842 -0.0277345814307803 0.1515948536441084 )
( 0.2314537277540104 0.0976437408873764 0.0194020462167461 0.2310191382467498 -0.031419651564367 0.1562113102856711 )
( 0.2348663699630931 0.1057476437254502 0.0219258063803779 0.2393983826784091 -0.0344337567920244 0.1607400794269393 )
( 0.2397086673798647 0.1148330192268319 0.0241202573242284 0.2481898260022637 -0.0372969335487549 0.1649931849142589 )
( 0.2458321707308875 0.1257497421871427 0.0258904747338981 0.2578698596581785 -0.0401657317520148 0.1695198134774899 )
( 0.228784630210786 0.1298749663152995 -0.0340037162083107 0.1756662453572808 0.0208826945659738 0.2610078768087824 )
( 0.2309961374238147 0.1290213987782835 -0.0391880550632903 0.1790290924986163 0.016612190229774 0.2412973858278043 )
( 0.2357309644815826 0.1246342008669904 -0.0394492898622748 0.1813570511903623 0.0123122698037101 0.2122901639360452 )
( 0.2377593630084385 0.118435401802758 -0.033387974020198 0.182918671938348 0.0086952680515795 0.1881947798062547 )
( 0.2345022280616792 0.1108363877136858 -0.0244879507076238 0.1816456363631155 0.0069968903314467 0.1700070294534496 )
( 0.232192519757504 0.1027051561312758 -0.0144787298199506 0.1798830370944951 0.0057365694740548 0.1555603161842227 )
( 0.2292663832014795 0.0952837283311805 -0.0041927269338697 0.1784744658728004 0.0043248044608677 0.143472491015646 )
( 0.2252499304789758 0.0888356221087943 0.0053152304685251 0.1772718221580843 0.0027045741732637 0.1353386472589592 )
( 0.2231256897749596 0.0849795944885135 0.0132428455249218 0.178202464370682 -0.0005863066596414 0.1307846248740657 )
( 0.2225255081647528 0.0839904573485178 0.0196783947078282 0.1822420675130479 -0.0053891788912537 0.1295407895888513 )
( 0.2235772173842097 0.0859014190165897 0.0248706489306876 0.1895923474453315 -0.011097804062621 0.1317142386311412 )
( 0.2261285302570451 0.0914260004096827 0.0292590490148682 0.1993596785972576 -0.0170715775888207 0.1359419745259318 )
( 0.2302484596095271 0.1000637764005244 0.0325346242579509 0.2109440317722812 -0.0227567457425256 0.142291731817306 )
( 0.235746721957044 0.1109174812151971 0.034567452700511 0.2235165971268071 -0.0279349419129646 0.1492424669148422 )
( 0.2422252893300916 0.1231782161614181 0.0361060693120942 0.2356205408355546 -0.0325926586132179 0.1555328718363841 )
( 0.2495532044110772 0.1360074709907964 0.0372050851248492 0.2469434283705812 -0.0363001447401256 0.1614913965273109 )
( 0.2578129885364095 0.1494487593497832 0.0373777747244569 0.2581333091167276 -0.0396607090706431 0.167594712384107 )
( 0.2671342115365358 0.1636016335960113 0.0364156175534883 0.2692749909898562 -0.043084095325396 0.17324870703412 )
( 0.277922483848467 0.1793120050581223 0.0345341459175831 0.2811863417014313 -0.0466082494594178 0.1793629123768447 )
( 0.2188926505449016 0.1268510827570892 -0.0367543488929292 0.1793774432077623 0.01691197946624 0.2542315433387905 )
( 0.2181113477272326 0.1225861124620368 -0.0366953653023511 0.1802293412500727 0.0135089490749411 0.2299648871292924 )
( 0.2202545301970704 0.1153311203223628 -0.0304910928783388 0.1793283671773889 0.010416052461551 0.1978749842489738 )
( 0.2201917817839574 0.1070633749616622 -0.0190553628389703 0.1773132881629396 0.008169027031803 0.1723146072154783 )
( 0.2185810679690769 0.0994066057302889 -0.0068986350555076 0.1743365770333348 0.006975118602438 0.1533814483579113 )
( 0.2175150080999501 0.0926009222199718 0.0049581608571679 0.1713181588339904 0.005558321149842 0.1388603286557599 )
( 0.2159418573550212 0.0876508934550523 0.0157605395770901 0.1694004000367167 0.0035993405577958 0.1279936079917128 )
( 0.2157664146279516 0.0856213197648812 0.0248334888331058 0.1703564417698706 0.0008900793834883 0.1211712019864642 )
( 0.2177406230123038 0.0872763617458202 0.032387937745354 0.174608376058349 -0.0033061593644962 0.1182902777150713 )
( 0.221226503128722 0.092553702135609 0.0378656403760118 0.1825503619556886 -0.0087463692548593 0.1202138467812108 )
( 0.226066020516961 0.1015870309192017 0.0412479670240923 0.1939674483621128 -0.0149879501435519 0.1261791329026625 )
( 0.2332654229011067 0.1146782347252858 0.0432340094474315 0.2084397146532974 -0.0217889381539278 0.134202291377166 )
( 0.2426808102124232 0.1302706952470605 0.0438044558752054 0.2243505376824459 -0.0280249425329404 0.1437437656876265 )
( 0.2531441448155582 0.1469689005297191 0.0428233489264218 0.2400340725792102 -0.03369936793804 0.1532563550747862 )
( 0.2642524119854887 0.1645443417864404 0.0410056703275068 0.2556486226939425 -0.0392557620041172 0.162141965202984 )
( 0.2757761993954787 0.1819381571997828 0.0385610637412224 0.2700048869280001 -0.0436583419704782 0.1699894326395464 )
( 0.2877909218087932 0.1991570680637994 0.0352583165858949 0.2832959382665437 -0.0478001914199255 0.1777895942332909 )
( 0.3011258422716567 0.2174124795512406 0.0307380750552751 0.296679409942447 -0.051977922541903 0.1860478630508317 )
( 0.3159037342786246 0.2366541531224821 0.0250302737675293 0.3102223395198062 -0.0561145531881775 0.1944948153518996 )
( 0.2069589925428101 0.1202670398690107 -0.0336718988459313 0.1809038992479438 0.0140419828240054 0.2453562049804319 )
( 0.2052186042307912 0.1137501803102817 -0.0279282643633844 0.1795109806054367 0.0117240455283235 0.2161314281364949 )
( 0.2079776521658081 0.105799628673118 -0.01662049397072 0.1765119391253476 0.0096236690844221 0.1810464206023036 )
( 0.2089509582740222 0.0978627860311852 -0.0023929053670527 0.1723245162793453 0.0081501179796889 0.1539261034242203 )
( 0.2093425962068892 0.0917370421684974 0.0107726005810004 0.1678690409275962 0.0071293414151137 0.1341925776474902 )
( 0.2102030119051531 0.0878365810535074 0.0225709490489243 0.165174645808435 0.0055527164361753 0.1197862010843719 )
( 0.211049183274934 0.087290908344812 0.0325353140207477 0.1657615891272402 0.0027513750269446 0.1103208151604989 )
( 0.2133111315580208 0.0900639759531326 0.039412678313881 0.1696575249865876 -0.0013066766635932 0.1069143630856716 )
( 0.2180604450680552 0.0970434531492801 0.0445044214692489 0.1775263141508823 -0.0067738024965908 0.1083080659741934 )
( 0.2246874181725658 0.1086816038505862 0.0474551723996112 0.1900003459277955 -0.0133327981475512 0.1142194188557895 )
( 0.233627088311275 0.1249598917427791 0.0481155425450883 0.205901696678 -0.0205021118599653 0.1248914316531985 )
( 0.2460549706975583 0.14462594423642 0.0469945701075815 0.2245503146935605 -0.027988358283101 0.1378263593394912 )
( 0.259615302677941 0.1653717828636421 0.043560273879932 0.2445904129642152 -0.0353907928081643 0.1505190677635439 )
( 0.2738662510076411 0.186722909249732 0.0387150306936367 0.2640750791296706 -0.0422896951176954 0.1624171017653205 )
( 0.2885826919576355 0.2077922638781671 0.0337530247307059 0.2820419428100141 -0.0480966506833996 0.1729078648277165 )
( 0.3037206126685646 0.2286655206159033 0.0282536069184787 0.2987881547741469 -0.0528219516337794 0.1826237578818328 )
( 0.3195498358188875 0.2496046758296385 0.0221135445755838 0.3148130335725463 -0.05739479485359 0.1926027956782253 )
( 0.3369837989143981 0.2714122759556988 0.0152328851901091 0.3306447038763078 -0.0617137996947563 0.2032653089897363 )
( 0.3559067404362387 0.2934839825966999 0.0076181534258739 0.3457890732634999 -0.0657997686043111 0.2134910628554314 )
( 0.1955693869751149 0.1116257864787038 -0.0251358280883206 0.1806328439768851 0.0123387046115149 0.23350052785092 )
( 0.1943981498279681 0.1043660655184833 -0.0155974195602341 0.177726660014284 0.0108463818700103 0.1993048941378495 )
( 0.1990516227122586 0.0972207404410361 -0.0021216117923306 0.1727933529559125 0.0092796638645397 0.1618056578508087 )
( 0.2023079173065377 0.0914102512583882 0.0125158155163671 0.1675950640532384 0.0079146228902279 0.1343620944348445 )
( 0.2046460234767332 0.0879104173434303 0.0255339241766295 0.1639067906829337 0.007070445709561 0.1146233155220489 )
( 0.2069093165634737 0.0872470717444212 0.0352897539631879 0.1636238658172544 0.0047882325710172 0.1023394388383102 )
( 0.209472642750504 0.090965945060595 0.0425563034704738 0.1672450821898195 0.0007395781818682 0.0960933226051127 )
( 0.2141442088431664 0.0986561676828033 0.0472117503385545 0.1742145816495486 -0.0045542458963954 0.0969304337375319 )
( 0.2210427086594545 0.1108908106806152 0.0496125934003642 0.1857368098947657 -0.0111386871929194 0.1039907176879979 )
( 0.2305886341991349 0.1285650764212489 0.0492944185932898 0.2032253744305509 -0.0193538182445641 0.1149917086750004 )
( 0.2439022687434409 0.1509002098453436 0.0466885977437782 0.224028312472085 -0.0276717916067025 0.1292793067431395 )
( 0.2601905558986045 0.1754764063272524 0.042590617049631 0.2462298567564767 -0.0355777097118142 0.1458753124474358 )
( 0.2775586162542876 0.2010348459208121 0.0357685726633292 0.2703650264618376 -0.0439432109257613 0.1609035903932256 )
( 0.2952544750471873 0.2265822125076607 0.0280491600695911 0.2937418173222207 -0.0514031321150114 0.1747833308103423 )
( 0.3131610865368576 0.2507707729577922 0.0211414796487855 0.3142395179448362 -0.0571215577182797 0.1872455397931015 )
( 0.3316149059995132 0.2748429492344683 0.0137286777967696 0.3337997871805668 -0.0619200405959182 0.1983687805358535 )
( 0.3505698748419222 0.2988358869078478 0.00592781693417 0.3529943733141178 -0.0666456598301009 0.2095337694186017 )
( 0.3718994594256718 0.3235115646087191 -0.0020695407641661 0.3714675549267149 -0.0708742798233997 0.2205889510287926 )
( 0.396074636138165 0.3490888064565568 -0.010397135553583 0.3889418766938537 -0.0744771493932215 0.2308759861581171 )
( 0.1869859400696212 0.1027284723337254 -0.0133020312197715 0.1800917847940196 0.0122705867050541 0.2188808666968407 )
( 0.1882590808823858 0.0961477294118284 -0.0027553593356493 0.1758779833535847 0.0108536603513036 0.1802397079070521 )
( 0.1936296207143536 0.0907521358707016 0.0107074538812732 0.1693968865142076 0.0093259732745084 0.140934014213607 )
( 0.1983735254850094 0.087734386988534 0.02451448698517 0.1649755462015946 0.0079740072596737 0.1144399035537004 )
( 0.2021237511274324 0.0873746578196964 0.0351527182552623 0.1639653286097231 0.0061768131328993 0.0972238921532497 )
( 0.2049890592057605 0.090052193530634 0.042323499298955 0.1663100916108651 0.0026279170706576 0.0882508519450718 )
( 0.2086518418637779 0.09735467412099 0.0470544562861415 0.1721464550395145 -0.0024725842967525 0.0862076006194622 )
( 0.2153516508502458 0.1100049614257373 0.0492736168688758 0.1828109336986417 -0.0090922165853704 0.0919914970730085 )
( 0.2246396531478306 0.1274755340997463 0.049063410741288 0.1984410865845726 -0.0166867407009121 0.1039455292843267 )
( 0.2376641684012186 0.150156498058431 0.046171416092547 0.2199456058809135 -0.0255289941792649 0.1192696923472721 )
( 0.2545251606483758 0.1770243309235125 0.0405616913448647 0.2458860191977262 -0.0350319278917602 0.1370937054837887 )
( 0.2730982563772339 0.2056514420962332 0.0332578126342 0.2731994611881331 -0.0441870814789488 0.1560470352920269 )
( 0.2935973362738973 0.235167512169581 0.0248628033831783 0.3008530327399752 -0.0526177607957895 0.17336382417088 )
( 0.3144623729640187 0.2639162820066992 0.016092720417083 0.3273160031330951 -0.0598274271487018 0.1885009846501717 )
( 0.3350818604073368 0.2912653570166728 0.007530290391486 0.3516442960492483 -0.0656980373389157 0.2015410310504699 )
( 0.3565677377921064 0.3186343688047192 -0.0009367036404973 0.3751238397592321 -0.0706327386107755 0.213238605192999 )
( 0.3795706895154784 0.3464751492631027 -0.0093633792084006 0.3984158731327089 -0.0752591970057052 0.2241050358072338 )
( 0.4063033358077494 0.3752741283855734 -0.0180041296200897 0.4204893227782736 -0.0792891326859427 0.2337670083321613 )
( 0.4382241389390827 0.4058413254830635 -0.0266781741690792 0.4408254311279513 -0.0820758121348504 0.2422754467030411 )
( 0.1815762039253773 0.0954806438894086 -0.001883264845983 0.1801726594207587 0.0121312399284378 0.203033483869967 )
( 0.1850622682303938 0.0904127035758777 0.0079883647055376 0.1748178090954431 0.0105119867510115 0.1615556196503681 )
( 0.1909196888015675 0.0868544789985897 0.0209907714242622 0.16833153241309 0.0092444204568441 0.1216694124683532 )
( 0.1955215385023532 0.0862224687688949 0.0322146409978268 0.1656857855983951 0.0074950840314039 0.0970631932807539 )
( 0.1987391600431836 0.0886822595645604 0.0397300867785413 0.1663010216762246 0.0043965363252177 0.0828616300656166 )
( 0.2021396789575275 0.0947026180350865 0.0448897139864394 0.1712205645979921 -0.000309702068354 0.0777410396088709 )
( 0.2077749524918702 0.1054729917314327 0.0474405840619728 0.1805498455280459 -0.0067606204874801 0.0808904162982518 )
( 0.2161336170762667 0.1219702742260162 0.0473587853942686 0.1945172734317775 -0.0145578586569007 0.0920392821132874 )
( 0.2281727256898001 0.1439321721949712 0.0450909948683213 0.2141794238200377 -0.0230530831233552 0.1082484487630297 )
( 0.2438815265641687 0.1707075144621189 0.0401146260486168 0.2395740887240217 -0.0320306572601227 0.1263385883750977 )
( 0.2629056517185597 0.2012841650680527 0.0325987554653401 0.2700849068699744 -0.0420017283122947 0.1466796586286751 )
( 0.2845946650190571 0.2344471666563741 0.0231553521797893 0.3034532907169012 -0.0523382791001989 0.1674019068350203 )
( 0.3071502853788317 0.2669259059462668 0.013857000521225 0.3350524031390527 -0.0607425401249131 0.1854166135510487 )
( 0.3305478815458162 0.2986283877482296 0.0044793471955491 0.3653374243034712 -0.0679393664570519 0.2008222779809424 )
( 0.3545336511290474 0.3301885886057438 -0.0052635557488471 0.3952068304541695 -0.0741496461210079 0.2133301057520722 )
( 0.3800158058869652 0.361993705932587 -0.0142567923116519 0.4240334398883456 -0.0791539867241529 0.2243500432964183 )
( 0.4092683827461097 0.3952461420839711 -0.0230316562274497 0.4524328933231668 -0.0832657484636834 0.2337196032645571 )
( 0.4435386964308835 0.4298196037460192 -0.0317160746654098 0.4787509029596103 -0.0862557930749227 0.2412529076525175 )
( 0.4853550166300622 0.4673951904073027 -0.0402023475224244 0.5031388677281488 -0.0877926843370442 0.2476726283413647 )
( 0.1777422475719577 0.0893690013707378 0.007375362142021 0.1803172671390526 0.0109592791440233 0.1859341980136251 )
( 0.1829799667733253 0.086252638331868 0.0163906689672188 0.175160814426064 0.0097841828904843 0.1428535689981562 )
( 0.1893425968298637 0.0849788242665007 0.0274002710335683 0.1701842543658635 0.0081523877334276 0.1043081382487666 )
( 0.1925328998607875 0.0861686084995764 0.0354643962927828 0.1690373362124851 0.0055449602790417 0.0826620925295347 )
( 0.1950989415009968 0.0908091956765058 0.0407800878942263 0.1713956636851944 0.0014521956375094 0.0722962516968114 )
( 0.199164572359196 0.0998159008000084 0.0438993610807504 0.1786972554979573 -0.0044109118760019 0.0717570284185229 )
( 0.2063524879229804 0.1141094345183264 0.0450315846596262 0.191008780066654 -0.0116812234169144 0.0803781582913306 )
( 0.2161887462186696 0.1341264311888562 0.0435892500083566 0.2087756808352437 -0.0202336041683343 0.0960992297191403 )
( 0.2306497044531648 0.1597437811673398 0.0396767329135625 0.2329092456168491 -0.0295835743966707 0.1148796039758345 )
( 0.2480222543411847 0.189889512730674 0.0328289346299873 0.2630842390547167 -0.0393537864648897 0.1352390687937752 )
( 0.2685688224793993 0.2238241598001977 0.0238817081884497 0.2983062073164891 -0.0497591890756551 0.1570442965598509 )
( 0.2928407009667343 0.2607164814613481 0.0137594657569976 0.3365356865791261 -0.0599740000862154 0.1781614084690335 )
( 0.3181581478603714 0.2971515695288352 0.0033629859826303 0.373664765303038 -0.0685670349751185 0.195682772928299 )
( 0.3455449670242042 0.3335959162106574 -0.006730910700617 0.4099923989958073 -0.0758822995150982 0.2103991411755818 )
( 0.3739897159025343 0.3703233540365152 -0.0165842339355317 0.4464765730544945 -0.0821929400701682 0.2225585983847619 )
( 0.4041555774191145 0.407041965372837 -0.0256015605936887 0.4814729874899917 -0.0869800755470193 0.2319533601274916 )
( 0.4396887536416261 0.445919440621307 -0.0341339956916976 0.5151508153179751 -0.0900625008175478 0.2390340404786828 )
( 0.4837084234257935 0.4884181151282682 -0.0424194256274733 0.5469709643699562 -0.0917500535070667 0.2447333678160647 )
( 0.5383688612646639 0.535204414012934 -0.0510075728124302 0.5764090842404125 -0.092558018632667 0.2493698674791828 )
( 0.1761080578595148 0.0843785157775309 0.0139601132784556 0.1815446272891928 0.0103842391447598 0.1702497828890856 )
( 0.1806040815236541 0.0829081942375793 0.0211181851942302 0.1770480975969086 0.0090518758132143 0.1262261411528843 )
( 0.1860681458442443 0.0838425249588327 0.0298683174189216 0.173768785248814 0.0063309217719538 0.0900155828988427 )
( 0.1889606817341641 0.0869784557184839 0.0358275323045404 0.1747581808137228 0.0027844376374644 0.0716614779736602 )
( 0.1920567759204878 0.0939912485994638 0.039738658887079 0.1787594613805196 -0.0021524335346815 0.0658734520538809 )
( 0.1971000055397544 0.1058601854172639 0.0416090800861298 0.1877339310305859 -0.0088180246640024 0.0701895684688522 )
( 0.2051819134421442 0.1233320821911412 0.0415006985616411 0.2026985886397209 -0.016676316475941 0.0828700082121516 )
( 0.2160017365828266 0.1461565464530323 0.0389048393811043 0.225053947921772 -0.0260241052848968 0.1018526054135147 )
( 0.2310472096543111 0.1745053518315946 0.0334394447871086 0.2545662411735468 -0.0362309185658086 0.1226236208450661 )
( 0.2501368861398879 0.2077964280875421 0.0255102057426581 0.2894037436484794 -0.0464973303396867 0.1441090212290175 )
( 0.2731777722400706 0.2456995929818836 0.0156530500917848 0.3302798396740188 -0.0576057463473982 0.1671512146260964 )
( 0.2994848161656768 0.286170311009311 0.0051325307728351 0.3740108333840446 -0.0674786292809141 0.1877781674753187 )
( 0.327980469334305 0.3271081044460852 -0.0057605540678686 0.4177202557470494 -0.0760803146229607 0.2044982741911123 )
( 0.359592457961112 0.3693454584473767 -0.0163818711964037 0.462109242110703 -0.0834816093186393 0.2181273715047516 )
( 0.3921792472192468 0.4108050360702857 -0.0256641280934684 0.5048183107236267 -0.0889726084487632 0.2282392491984916 )
( 0.4279054702629213 0.4529833430112791 -0.0343257769938842 0.5456874461129467 -0.0929975808768791 0.2356507427116959 )
( 0.4717241072263781 0.4999506289468113 -0.0430586743451855 0.5871048452010222 -0.09587902890538 0.2413120866453 )