/*--------------------------------*- C++ -*----------------------------------*\
| =========                 |                                                 |
| \\      /  F ield         | OpenFOAM: The Open Source CFD Toolbox           |
|  \\    /   O peration     | Version:  2112                                  |
|   \\  /    A nd           | Website:  www.openfoam.com                      |
|    \\/     M anipulation  |                                                 |
\*---------------------------------------------------------------------------*/
FoamFile
{
    version     2.0;
    format      ascii;
    arch        "LSB;label=32;scalar=64";
    class       volVectorField;
    location    "0.0033";
    object      U_LES;
}
// * * * * * * * * * * * * * * * * * * * * * * * * * * * * * * * * * * * * * // 
 
dimensions      [0 1 -1 0 0 0 0];
 
internalField   nonuniform List<vector> 
13597
(
( 17.05790304964478 1.5670578130054331 0.0725602995816359 )
( 17.052108216785232 1.6078066097351509 0.0673199078585061 )
( 17.053727115728215 1.6922487363722962 0.056484034708882 )
( 17.062994274384746 1.80110611889389 0.0432867597518598 )
( 17.073375221103372 1.893141273669216 0.0338669369453331 )
( 17.07986043868126 1.968308822232284 0.0269191357595585 )
( 17.09051823492744 2.0427770274527832 0.02120346880585 )
( 17.105296011792262 2.1217360804669507 0.0170104894616921 )
( 17.12302297984739 2.2009884931297874 0.0135254701414863 )
( 17.14338242542883 2.2799614535704587 0.0118246657369817 )
( 17.165893975565787 2.366786871093348 0.0116713588995293 )
( 17.1928961205555 2.4541092955214694 0.0125844749148922 )
( 17.223418718767373 2.540108003610131 0.015005131825291 )
( 17.25527201653346 2.6302960528443102 0.0195241000276088 )
( 17.28755363680444 2.722795081683428 0.0264223575616224 )
( 17.322477149622827 2.814620062585161 0.0341359245856145 )
( 17.361021685745 2.903477958303616 0.0416386222409364 )
( 17.401020020661107 2.992893074114361 0.0492567936049723 )
( 17.441730942440632 3.0854369423250274 0.0576535068237409 )
( 16.909652902155035 1.578229776882594 0.0737235382913682 )
( 16.88274990027912 1.627298604602002 0.0677908794571384 )
( 16.858801114640528 1.7354190645146874 0.0557359191957059 )
( 16.837772102538775 1.859878272386596 0.0425161048605924 )
( 16.820472531257902 1.9552924971155197 0.0358665592907487 )
( 16.80461415654317 2.0437207978282994 0.032246091204511 )
( 16.795535045799554 2.1331245580572267 0.0304749141036158 )
( 16.78854518492905 2.226849410348569 0.0310939529786011 )
( 16.785503489258762 2.322866298400446 0.0330023490197357 )
( 16.78518834600338 2.4186439642807613 0.0367381038655248 )
( 16.78647143858183 2.524272738481508 0.0434390838593429 )
( 16.78809861643258 2.6365165445889107 0.0531779796463528 )
( 16.790440966673884 2.749788431325308 0.0640658519665777 )
( 16.79692370130057 2.8658864128514243 0.0757975891352409 )
( 16.80498554939163 2.9794367684113965 0.0886504595352381 )
( 16.81554563845242 3.087475742658212 0.1010473394508771 )
( 16.826592719294478 3.18760485754452 0.1120002399299208 )
( 16.837542845122876 3.289505210030916 0.1229327680806916 )
( 16.853250845395458 3.390528070973467 0.1330378285179556 )
( 16.760241672276226 1.580281244556002 0.0708010577709999 )
( 16.710667934799783 1.6363810397219414 0.0640093871769107 )
( 16.66119060642851 1.761076924532342 0.051310483031748 )
( 16.613455473632346 1.8972795013372488 0.0396990408076015 )
( 16.572443676221713 1.9983074963853336 0.0357586816202377 )
( 16.539924249599096 2.099555224615591 0.0352927557460394 )
( 16.51420717543687 2.2047489805604576 0.0373607487761562 )
( 16.48547380550339 2.3111881253252458 0.0421034456963169 )
( 16.461306824629208 2.423128743502584 0.0488665089972022 )
( 16.440949848265262 2.543595953234761 0.0584864891213336 )
( 16.420416300010597 2.669894647833346 0.070704357661815 )
( 16.400484426649328 2.804239517036916 0.0851899273888112 )
( 16.382660382050396 2.9421357557108063 0.1004240385624454 )
( 16.36802529959185 3.0742156529387312 0.1147240979108085 )
( 16.355042933437655 3.1950324452930445 0.1276426809050019 )
( 16.34462457127332 3.302662004366776 0.1385666957585354 )
( 16.331883072087283 3.3993494843194867 0.1473917021263145 )
( 16.31804095261505 3.496130561942967 0.1551665579522699 )
( 16.31164235899738 3.5964583154022103 0.16229621257847 )
( 16.610271136442087 1.5731482197861475 0.064756841639895 )
( 16.540411572195676 1.6365217588034224 0.0563000647931016 )
( 16.47122674566945 1.7712797185958618 0.0447468498995308 )
( 16.403190013605755 1.9165157873892984 0.0356613160911776 )
( 16.341294133404954 2.0272109130210905 0.0330866964466068 )
( 16.289558881040918 2.1376034049826718 0.0343204974649453 )
( 16.239471324191104 2.256188087871513 0.0386294337849948 )
( 16.187197873704317 2.3770155082721094 0.0453780397949371 )
( 16.143104039368648 2.5028318138327097 0.0547167763438524 )
( 16.102040044595483 2.6375274450903974 0.0665239977755232 )
( 16.05722663338638 2.780174167869753 0.0800560589752221 )
( 16.01803897270832 2.9272950952959964 0.0941577750033964 )
( 15.98165668880906 3.0730161106387115 0.1075606115991 )
( 15.942310038770117 3.212007620030332 0.119840510810615 )
( 15.902961752098792 3.330825246160056 0.1294332004660598 )
( 15.86535679167471 3.432130652215778 0.1366040638357249 )
( 15.827550027611457 3.523920960564434 0.1423671041567245 )
( 15.78610511069424 3.61655899749698 0.1469257030645429 )
( 15.747529459646096 3.719661880448511 0.1509689353671954 )
( 16.466810008789924 1.5592458405856349 0.0557301882378822 )
( 16.384460787121625 1.6326751060823423 0.0452880560825128 )
( 16.297053543773448 1.778407555106326 0.0343851218731201 )
( 16.208060267275876 1.9272577926873249 0.0275084886859785 )
( 16.12849483242547 2.0442604259872774 0.0253737513631969 )
( 16.05559354826259 2.1621438927396 0.0269633204989953 )
( 15.979801463066716 2.289602007370189 0.0326999589558891 )
( 15.905510649259094 2.4202771125845746 0.0399520893535441 )
( 15.8375335399588 2.5520246538428304 0.0496565523892674 )
( 15.768346426009916 2.69218302088683 0.0618293734655275 )
( 15.695108941504648 2.844768721662685 0.0752764328611965 )
( 15.624868611838783 2.999456076725352 0.0883559743381956 )
( 15.555139703214763 3.147963323390625 0.1000923692402551 )
( 15.48206936456379 3.2857925676509208 0.110546665709845 )
( 15.409004355597334 3.397972693806945 0.1174913124347009 )
( 15.33700062120952 3.497962895373063 0.1223059521473791 )
( 15.266916431010648 3.5933672845943 0.1264992121897007 )
( 15.196568048219834 3.6891704716702 0.1300642712297124 )
( 15.125471803606365 3.7976794097287496 0.1333384872436362 )
( 16.33408536780946 1.5385508520649522 0.0433034353555319 )
( 16.239267106236564 1.6222087188370375 0.0310389363655851 )
( 16.13131465950541 1.7808805150483349 0.0192570750613065 )
( 16.024094534401716 1.932497943669372 0.0136899010037404 )
( 15.927792363744198 2.052662508122823 0.0130847931868562 )
( 15.834703799660751 2.1761576076812794 0.0159206330881379 )
( 15.738710686943476 2.3049850630624813 0.022731369417285 )
( 15.639366210597764 2.436634471670561 0.0309285253802363 )
( 15.535842864317608 2.57098761963797 0.0415966316708927 )
( 15.42996513601663 2.719315873842932 0.0550729104306855 )
( 15.326132724672208 2.874467462579809 0.0686952997305454 )
( 15.218556167194071 3.028144377846868 0.0808577895424262 )
( 15.112745657515426 3.1774911294451247 0.0917340145804226 )
( 15.00947655774474 3.311461963377772 0.1009783128189905 )
( 14.904738260923349 3.421918773078471 0.1071313608652521 )
( 14.80666207154969 3.519376743342025 0.1112936682245114 )
( 14.710032646760812 3.613884943688818 0.1148626253526287 )
( 14.61274332009038 3.710407034065371 0.1181987436546361 )
( 14.514948353998838 3.8214036497728863 0.1215133632214219 )
( 16.20572891506399 1.513045745234443 0.0276444471549695 )
( 16.097744693575343 1.6074694743384117 0.0138908278129204 )
( 15.972274278653922 1.7744167864000675 0.0035255639450866 )
( 15.848133386292565 1.9256220723623931 -0.0007665610033027 )
( 15.732693661222743 2.0463368147947976 0.0001814417343856 )
( 15.6151482592435 2.169677880668474 0.0052849613485734 )
( 15.494964534170563 2.2990305776995204 0.0134713555350114 )
( 15.367912341028765 2.430535586656484 0.0243008598081864 )
( 15.230754339505298 2.563413075396921 0.0370064391675218 )
( 15.097239436583386 2.711653688766981 0.0513483203116663 )
( 14.96148781203527 2.867442993691665 0.0651326290775904 )
( 14.818538502673912 3.0222370079353222 0.0772354776242931 )
( 14.682519267898238 3.167568325602551 0.0875774241344684 )
( 14.551572325357018 3.2964987803028767 0.0961240095136818 )
( 14.420689857255503 3.408630742147603 0.1025040783432436 )
( 14.297103033784314 3.502231074793415 0.1066698594097075 )
( 14.1774867835178 3.5932689247362544 0.1100310899258095 )
( 14.054912579399666 3.692964883975331 0.1129485668408933 )
( 13.93209640766788 3.806422552823488 0.1153757571616877 )
( 16.087648233252896 1.4859160160107503 0.0109930090248542 )
( 15.96553949865909 1.585160729162783 -0.0031220659835735 )
( 15.82193554711161 1.753971739407311 -0.0112338603633256 )
( 15.679074544362807 1.9034672254933311 -0.012743246596514 )
( 15.54118990995719 2.0245111779861413 -0.0096050926500597 )
( 15.398582233176388 2.1478918839355563 -0.0020872532005876 )
( 15.250268252917447 2.2763237933385025 0.0092984289794423 )
( 15.098226097531072 2.4029489437689904 0.0227261315560885 )
( 14.933277379308018 2.53242655498544 0.0364225214928487 )
( 14.771679546764716 2.6813198309661934 0.0517144170294504 )
( 14.603886547067722 2.836835117822039 0.0660327474068037 )
( 14.433577180734474 2.992441193820633 0.0781135409857207 )
( 14.271727516732335 3.1355182700484088 0.0883272644358751 )
( 14.111814917571426 3.255795360337869 0.0960876007854593 )
( 13.96226319002142 3.359843521021877 0.1012982989000629 )
( 13.815998527447675 3.4519620259248462 0.1046374871704937 )
( 13.672525715030934 3.544849092411559 0.1074275927119376 )
( 13.52779129747312 3.6489121386148136 0.109566649338137 )
( 13.38314649759244 3.766377653693064 0.1111579705083534 )
( 15.977284681388284 1.4512410079293103 -0.0059637827935944 )
( 15.8391768047082 1.5500075653158576 -0.0190382612544995 )
( 15.676166417182465 1.7196811777118235 -0.0243071689573991 )
( 15.515111364668916 1.866783542537104 -0.0221653849757193 )
( 15.35265271173038 1.988689434958533 -0.0153387850375876 )
( 15.189510941798282 2.108189007656156 -0.0049712915067615 )
( 15.019820027371198 2.2294280552273382 0.0094445164085396 )
( 14.84458824928725 2.3569777545603507 0.0251013349350085 )
( 14.658077278482708 2.48841429838725 0.0397543355334559 )
( 14.46177443327233 2.632106532728459 0.0556135639698845 )
( 14.26565933460132 2.7858736251694456 0.0698099540639868 )
( 14.075001714925213 2.9381931229551004 0.0811804800855531 )
( 13.884554378059953 3.0777501387292814 0.0908908394124545 )
( 13.700650431825816 3.194311854843536 0.0974693853660261 )
( 13.533687550742286 3.292166225349043 0.1011091454340184 )
( 13.366049026993393 3.384569360360082 0.1034069868085882 )
( 13.199554137585736 3.4774636005252977 0.1056647477808959 )
( 13.032487130589152 3.5821974708478117 0.1076817574205454 )
( 12.862480529415311 3.703350802783858 0.1090841935651307 )
( 15.867782889681596 1.414079847330154 -0.0229071599934924 )
( 15.714080919298498 1.518483533624576 -0.0327370993411281 )
( 15.533742651001011 1.68631209597075 -0.0335148238869805 )
( 15.35435658265289 1.8233988485329613 -0.0279443462784061 )
( 15.173611782565864 1.943145122619968 -0.0173385643920983 )
( 14.992160737292927 2.054178470761741 -0.0034971284251672 )
( 14.799611145470449 2.1657730304667804 0.0124385008047514 )
( 14.596238440031875 2.290373557851323 0.0296913981925444 )
( 14.390766811242576 2.418945569940936 0.0457265014841439 )
( 14.172737688887423 2.560178738280395 0.0606659528671594 )
( 13.953768313019742 2.716223265811804 0.0740340588905358 )
( 13.741616602156476 2.868009987464279 0.0849487892821316 )
( 13.529726917505917 3.0006394419079645 0.0933115907128273 )
( 13.328613865169554 3.1148226376229378 0.0984848897176812 )
( 13.138499707097935 3.210464644308112 0.1018462880692171 )
( 12.947147297410597 3.298770356208936 0.1041664095439233 )
( 12.753895722841465 3.388947977119623 0.1060541971182738 )
( 12.561132903531288 3.492852931120698 0.1074741303541123 )
( 12.366040149768626 3.618911675043037 0.1073068358509071 )
( 15.76596258210166 1.3770137331878525 -0.0373010064848296 )
( 15.599825654219137 1.4854663223465328 -0.0425713143948384 )
( 15.397121223969876 1.6468224748043887 -0.0390960901829058 )
( 15.203407893662062 1.7720254376700502 -0.0302780056125072 )
( 15.008182025278078 1.884051650002758 -0.0161633977755622 )
( 14.80566204440478 1.988683942609205 0.0005891850917355 )
( 14.592808077518498 2.091608568179093 0.0174860628227326 )
( 14.37166682831683 2.2067141430857684 0.0350509061027154 )
( 14.14490575810129 2.335396667869074 0.051560725175071 )
( 13.910537850301804 2.4770679230047428 0.0654767933790498 )
( 13.670874816485451 2.629837197369981 0.077812901719457 )
( 13.43051558993458 2.782873749154429 0.0886885280931951 )
( 13.203706998891288 2.910591984305807 0.0959176811162328 )
( 12.985491639539248 3.021301966289432 0.1003906322967588 )
( 12.767215163353857 3.1148077475528075 0.1038433506222166 )
( 12.547766567997172 3.1976645050348487 0.1055954046342156 )
( 12.328104878055962 3.2862799536036507 0.1059473735866349 )
( 12.112962176910788 3.3920712409120246 0.1049806382025164 )
( 11.8921468600952 3.524084082577567 0.1024457338141272 )
( 15.668276692927169 1.3354014618482253 -0.0490045004365038 )
( 15.4861359669208 1.4435285460436709 -0.050467038066881 )
( 15.264291445912594 1.5986279236981695 -0.0418277571309269 )
( 15.05991490964201 1.7120650390229488 -0.0289910107065177 )
( 14.850089715762138 1.8123523561829988 -0.0121392077540011 )
( 14.629399919134023 1.912455665389189 0.0062727483909856 )
( 14.40492220027476 2.016131588946288 0.0238706515608533 )
( 14.168367402867228 2.12758349486943 0.0413265262122443 )
( 13.922225594130769 2.2537503707649558 0.0574407608349495 )
( 13.668938437407038 2.390376999110915 0.0710719254543164 )
( 13.409407212983291 2.535807696061154 0.082724967613833 )
( 13.146717906844486 2.6808632177106904 0.0925329197789044 )
( 12.895346052430504 2.808002263754468 0.098877480410488 )
( 12.650947973658011 2.920623215175248 0.1023940538244691 )
( 12.40568711321724 3.0094773190691817 0.1045509147369063 )
( 12.164991919362294 3.0854648747776947 0.1046654104412419 )
( 11.927064835412398 3.1732134055236907 0.1030135450039061 )
( 11.688243251816084 3.286556123909532 0.1004500493475166 )
( 11.44051186136813 3.427184106481058 0.0984924237771768 )
( 15.571613401512309 1.2837581941330272 -0.0593078662911712 )
( 15.37659131266448 1.3908358447416962 -0.0564508218634186 )
( 15.14480437228942 1.5410570091381612 -0.0426185188883271 )
( 14.926634258553223 1.648276216969642 -0.0259281712355724 )
( 14.704320451924591 1.7453214619392952 -0.0071002847915074 )
( 14.471049628133574 1.841527406030553 0.0125350255609247 )
( 14.23293259990383 1.9409098568510732 0.0308826526200514 )
( 13.979031705090415 2.0445596729345783 0.0478672198030166 )
( 13.714921285249083 2.161646840408078 0.0632070745870107 )
( 13.445254183157322 2.297025089282451 0.0764989187232577 )
( 13.16299952946256 2.4432122800812714 0.0877256130344296 )
( 12.880121916296815 2.5805174312441417 0.0955488160410626 )
( 12.600920189610044 2.7026699734331654 0.1004731319566486 )
( 12.325018127835154 2.809486882751906 0.1027425399258068 )
( 12.06240484677097 2.889054992319274 0.1027812587536031 )
( 11.808840522381113 2.9641159226822893 0.1017760852261561 )
( 11.549694570247432 3.05526106251663 0.1004796038658076 )
( 11.281906112808022 3.172845822950958 0.0991065179221778 )
( 10.998777142768253 3.32697550370391 0.0992979000089778 )
( 15.480987833579524 1.222394836214426 -0.0673446633083669 )
( 15.280927162182625 1.3289567709794874 -0.0594868211613705 )
( 15.037206515925709 1.4755838119313784 -0.0414117211874603 )
( 14.806233752861676 1.5780094822891777 -0.0220094231706051 )
( 14.57148410536974 1.6719682790518142 -0.00126446259825 )
( 14.330355718127182 1.7605865136205068 0.0190972066670852 )
( 14.07918377858334 1.8532147282868252 0.037522973072462 )
( 13.81583900136181 1.9529854605539303 0.0536265478963683 )
( 13.534162784382536 2.062706179951531 0.0680591533235535 )
( 13.241198954197246 2.193880957090805 0.0810382253776842 )
( 12.935305666999527 2.3383921469595506 0.0911803797950737 )
( 12.624928025821058 2.47590962628189 0.0972666441154285 )
( 12.321499616364347 2.595382940281297 0.1007741482269748 )
( 12.028533148128297 2.689678473862943 0.101659335973091 )
( 11.749007139703227 2.76189297112122 0.1008597493558235 )
( 11.470634810275993 2.840649433977445 0.1002446037078225 )
( 11.183655137533496 2.9411287671418376 0.1002645917439761 )
( 10.882173514157252 3.0590515700371697 0.1009089076016104 )
( 10.554662360116485 3.218432400862733 0.1026889105288418 )
( 15.399926066442562 1.1609321145822555 -0.0724983605964316 )
( 15.189864201691869 1.2666995580444405 -0.0595170766897664 )
( 14.926660074451146 1.4100524815920756 -0.0374935352320145 )
( 14.687990082226738 1.5022893297923443 -0.016072503882556 )
( 14.447972662420351 1.5883599492795872 0.0056614293705365 )
( 14.201108920090103 1.6719565827711094 0.0256885064533378 )
( 13.937755392672448 1.757939496723138 0.0438027678331041 )
( 13.658696545377916 1.8552290768455528 0.0597491799870808 )
( 13.364289734220236 1.9601494041891157 0.0739711025575109 )
( 13.051459260736074 2.082569108846876 0.0859356044342573 )
( 12.718409706273848 2.223365092730291 0.0939825104891687 )
( 12.37960325907101 2.356465986361326 0.0984474333061689 )
( 12.051274797926272 2.4731962037795694 0.1007658770106539 )
( 11.746371653925245 2.5610560653245256 0.1007890970783741 )
( 11.451043472545184 2.6303009173887326 0.1005717702481241 )
( 11.146409907513531 2.7101307517183497 0.1008672939275794 )
( 10.82389420271187 2.8133527052533114 0.1019136796949038 )
( 10.479011946017357 2.9418726194674147 0.1040726338824205 )
( 10.114067053562444 3.1200450692314217 0.1065467051031204 )
( 15.326157396825607 1.1014425046934355 -0.0751663010237185 )
( 15.10683466731293 1.204117928859885 -0.0580023316440756 )
( 14.830985714022162 1.3404411009361306 -0.032519306197531 )
( 14.584342574225658 1.4215997676744188 -0.0096402736560644 )
( 14.339050350688469 1.4966704713998589 0.012145572593672 )
( 14.0834766146279 1.5820764385255195 0.0320710581996669 )
( 13.80996607386944 1.6604389037698843 0.0496624306689328 )
( 13.513255772852029 1.7458486307598 0.0654728535377774 )
( 13.200883888598495 1.850903694048655 0.0795339417563357 )
( 12.86962326403172 1.966006527275515 0.0893367338434051 )
( 12.50587258713984 2.104872538158457 0.0955672889412945 )
( 12.137144779040618 2.236618664448693 0.0992377362325847 )
( 11.797323221536605 2.34258881275235 0.1007904518717625 )
( 11.483629266597966 2.424797428129391 0.1015027303287033 )
( 11.168455601885348 2.495270760832563 0.1021320621295764 )
( 10.834146744063922 2.5761438300071937 0.1030126478737195 )
( 10.470737790341904 2.679873442322579 0.1060723443943769 )
( 10.080524670351643 2.82321367553124 0.1082518454337988 )
( 9.696012547297746 3.03867410570352 0.108112727303811 )
( 15.26133097012951 1.041303211674622 -0.0750518128198064 )
( 15.030338821509382 1.1369066426474277 -0.0551190279271491 )
( 14.746564989702785 1.2683363292634906 -0.026984048746263 )
( 14.498254440801997 1.3433523077718417 -0.0037136552996415 )
( 14.244414332972472 1.4115464973455278 0.0182476519859689 )
( 13.97422093355319 1.490123763368348 0.039178527103263 )
( 13.688794544888502 1.5584112275697983 0.0565362814521634 )
( 13.385108057308976 1.6391911106794077 0.0708478750520617 )
( 13.053364142081044 1.7415132804120677 0.0833108006919838 )
( 12.697016789729703 1.8454043536984428 0.0915163435168312 )
( 12.31966227355935 1.975959065383508 0.0966457131365437 )
( 11.928462694710442 2.115446168390937 0.0999656372970907 )
( 11.57328339874132 2.215068858165012 0.1019205670476267 )
( 11.241068291427354 2.286485506639257 0.1033398473149296 )
( 10.895141183078922 2.3577119138674285 0.1037485289136036 )
( 10.520664628934885 2.43490757715955 0.1053342029117794 )
( 10.118911382381071 2.5454565528777358 0.1080718718481161 )
( 9.705530566758378 2.7101394977080706 0.107986671371949 )
( 9.318603050844732 2.9713369673896644 0.1058962107903163 )
( 15.19966892867178 0.9793564187510018 -0.0733212668377042 )
( 14.961477661731385 1.0678630487560608 -0.0506442498429923 )
( 14.671527203831268 1.1909585601817223 -0.0207210375657097 )
( 14.422390148322089 1.2603018880349326 0.0023096290885385 )
( 14.16115177488134 1.3281217168355723 0.024209857990041 )
( 13.878025135242414 1.399064052803216 0.0452669783576938 )
( 13.584518913756758 1.454092691974486 0.0622805731972329 )
( 13.267543989729598 1.5325596036069666 0.0756724810315586 )
( 12.91452203351379 1.6323458747853152 0.0860526113488493 )
( 12.537553453443769 1.7340464967834868 0.0935230864971101 )
( 12.140404235086512 1.850172454629257 0.0990723280994899 )
( 11.73475246916588 1.9715625327079371 0.1024351676797292 )
( 11.36260812415916 2.070379076484693 0.1040550072189458 )
( 11.000755802086289 2.1437598918078007 0.1051373697871058 )
( 10.62269724960438 2.2049218640019146 0.1052753245755623 )
( 10.216840237086302 2.281449703953718 0.1057754955245641 )
( 9.784340889522758 2.40036950506514 0.106980186127897 )
( 9.363698412627032 2.601118777739832 0.1047846264406663 )
( 8.954868800523814 2.9286124568404097 0.1002236294531928 )
( 15.146349593915 0.914425011032309 -0.0718595205078298 )
( 14.903578921993534 0.9952337464081924 -0.0464960346743869 )
( 14.604574542133804 1.106329565204385 -0.0144121884851266 )
( 14.35286590622228 1.1742898226864071 0.008218794367555 )
( 14.08484538289145 1.237137293008797 0.0296648426614563 )
( 13.788424880919466 1.3024661938177535 0.0509189878041878 )
( 13.493396169867928 1.356348728203412 0.0673616286365654 )
( 13.162985128234563 1.421815317982806 0.0798670819723852 )
( 12.787068099817663 1.514794960974818 0.0889691228772501 )
( 12.387397887363662 1.6173469963702225 0.0958119741034031 )
( 11.962750908551484 1.7273265586034166 0.1012624192091639 )
( 11.550483976716333 1.8326562360828773 0.1040536176456173 )
( 11.156855006610597 1.919152010667852 0.1051951606727788 )
( 10.76188988145172 1.990418534075567 0.1066958670312537 )
( 10.361266205940767 2.051626112768645 0.1076406921230102 )
( 9.931188169127196 2.135340442521367 0.1073368701206455 )
( 9.47525925271078 2.268830102304479 0.1065186362258754 )
( 9.03719177300062 2.502663311129783 0.1027099960523833 )
( 8.53017579598748 2.857539134692745 0.093018432420376 )
( 15.104026902646648 0.8477350142373596 -0.0688486512915992 )
( 14.852173278703386 0.916749014517759 -0.0415014996563424 )
( 14.5449510117581 1.0196805964652136 -0.0084354235472787 )
( 14.288400682053975 1.0851841134118303 0.0141044485370257 )
( 14.014045601377356 1.145027899996308 0.0353111744224908 )
( 13.706840757386452 1.2096695788798468 0.0561885911344848 )
( 13.399482863986876 1.2590078351410467 0.0722989982520399 )
( 13.063046659741122 1.3129023612276611 0.0838638681109907 )
( 12.676079223948769 1.394288311894036 0.0919987039032144 )
( 12.2537720637387 1.485584730631203 0.0981234089940413 )
( 11.806701677882035 1.5953105288725633 0.1024161055334253 )
( 11.378274553991208 1.7001693918081302 0.1038303430753277 )
( 10.958816727507328 1.7733008049646235 0.105549414761519 )
( 10.540998776527625 1.832951171630738 0.107275121262764 )
( 10.107660438185157 1.904026530407712 0.1092605475960749 )
( 9.654979776821358 1.992970408293552 0.1101519276322819 )
( 9.187652587932243 2.142424085297344 0.1064504630005717 )
( 8.675807734032318 2.4053847543595523 0.0997657337297732 )
( 8.006392906421679 2.7275393176881537 0.0853212273228803 )
( 15.06479673320748 0.7755213051186131 -0.0647581189735179 )
( 14.809599419023456 0.8415807675868987 -0.0368633542213072 )
( 14.49996286044863 0.9364861446187992 -0.0040325938622037 )
( 14.234713193357566 0.9902217447031072 0.0193170462555484 )
( 13.952813263768045 1.0491206478944743 0.0412334216096888 )
( 13.6384371354466 1.1158107828857633 0.0611267548752207 )
( 13.317195855996772 1.156705766973806 0.0763723416938234 )
( 12.974555940371866 1.2017070021014389 0.0872279354010974 )
( 12.56818613714248 1.2758792411519644 0.0949788350028747 )
( 12.127143327092176 1.359500325869022 0.1007156212158284 )
( 11.663134191088936 1.459496284039553 0.1037374451586012 )
( 11.204411443612754 1.5574218680942988 0.1048923683060602 )
( 10.769768831107536 1.6319417712911768 0.1071260610092703 )
( 10.344094590033222 1.686816848515616 0.1073721683533347 )
( 9.88120815023928 1.755989689814302 0.1079663174644521 )
( 9.394833153024482 1.8474525701315592 0.1069018922083991 )
( 8.907009821365568 2.009241840184512 0.1033769116104231 )
( 8.294605090086833 2.2845975002309125 0.0943421065259328 )
( 7.394310861918311 2.53228839419727 0.0753700943220345 )
( 15.031271356271311 0.7011967263060105 -0.0618201196923058 )
( 14.773615863296635 0.7675226100353375 -0.0327539647851992 )
( 14.45974317423363 0.8584287262650606 0.0005072666820447 )
( 14.189646467088394 0.9062820834169324 0.0239619643216183 )
( 13.89749508217003 0.9582241002214816 0.0467788722545216 )
( 13.570533898296866 1.009793836117749 0.0665037192289687 )
( 13.239503237589927 1.0465406634238876 0.0804716777197079 )
( 12.890399705775982 1.0865088953967117 0.0900969327820388 )
( 12.457441083126838 1.1522810461439874 0.0978900730392925 )
( 11.997293820030238 1.2358877911843829 0.1033114600308365 )
( 11.52924315639456 1.3263966716034234 0.1048584104175297 )
( 11.05687180728511 1.4205098721955975 0.1066193793952967 )
( 10.60453720618612 1.4981080721886009 0.1087854294486809 )
( 10.150664455944566 1.542492278048544 0.108522026686903 )
( 9.674003643901615 1.6007348953088754 0.1077336237886269 )
( 9.163822289205088 1.6943940406234257 0.1040396959526562 )
( 8.604994779033147 1.8718752684606117 0.0978260132214831 )
( 7.922888091750805 2.151991035634653 0.084790733150159 )
( 6.65702300018995 2.248889176490105 0.063176640626864 )
( 15.001947356408031 0.6334362656282357 -0.0585081044039484 )
( 14.738290519911066 0.6935563340088289 -0.0273789619233424 )
( 14.420731418573157 0.7792515028619945 0.0063572604579812 )
( 14.149460486233496 0.826310951012681 0.0297902017520088 )
( 13.848057325965414 0.8693690750018451 0.0526126500858624 )
( 13.514945929651102 0.9075533942336864 0.070404428091831 )
( 13.173701173442758 0.9453947411627592 0.0828154597878525 )
( 12.805669887588294 0.986594959228702 0.0925542713979548 )
( 12.35346667261889 1.0376173288451978 0.1002933631983799 )
( 11.870841251030916 1.1132937613658591 0.1049363463441212 )
( 11.396452271715384 1.193506202618881 0.1062968664646815 )
( 10.925901266261254 1.2711929697546325 0.1072463782765599 )
( 10.457246493268924 1.340137873899688 0.1082830874365562 )
( 9.972123249631489 1.3841614169997765 0.1094512865137498 )
( 9.469269814776778 1.4343799508387742 0.1105095837509325 )
( 8.935052017684221 1.5280062646981205 0.1060147149840596 )
( 8.292670874313 1.7140547673137008 0.0952216388005064 )
( 7.4308908572893 1.947173858482089 0.0789454426660588 )
( 5.951118817872863 1.9306044421203885 0.0562138639996005 )
( 14.979676608072644 0.5640830322891816 -0.0541854746933354 )
( 14.710054578096267 0.6212470064796807 -0.0222093355892241 )
( 14.3840224430814 0.7013406244548545 0.0120327173333108 )
( 14.11074058074898 0.7413526984820568 0.0355593476238527 )
( 13.803435102566302 0.7822990917944074 0.0573722025665432 )
( 13.468836900927824 0.8222834156470895 0.073975957931661 )
( 13.123332287767465 0.8566740658667594 0.0856957362256816 )
( 12.733510098042904 0.8884242071170935 0.0954989150099606 )
( 12.269561550965909 0.9324774599173064 0.1030809158743841 )
( 11.77816926640218 0.9995981997457406 0.1067122301846819 )
( 11.285514997399822 1.0689063815973183 0.1076182619598112 )
( 10.792028578686626 1.1252349398962194 0.1078370440435519 )
( 10.304622271344028 1.1752291785913849 0.1078208004493976 )
( 9.801342115904934 1.2152787920676011 0.1082615175070049 )
( 9.277001157639887 1.2650277591142487 0.1087562728297645 )
( 8.698710202349945 1.3727345860544156 0.1028909625994987 )
( 7.995659609049353 1.550738818133257 0.0931259827040336 )
( 6.912263392356302 1.685794737790442 0.0757853923213375 )
( 5.350798121575666 1.6249546614691863 0.0502171052984964 )
( 14.963284143651714 0.4918561157792814 -0.0500726120645625 )
( 14.691864528889152 0.5489766158591016 -0.0185663547620241 )
( 14.356419487674025 0.6262083335916636 0.0163256699186513 )
( 14.0758837459574 0.6586115092548097 0.040339729222044 )
( 13.76171397197489 0.692604875517818 0.0615800808634368 )
( 13.422650667624012 0.73031939236812 0.0786883060419502 )
( 13.072559433776808 0.7508413980558163 0.0899139770308335 )
( 12.670737485217876 0.7767982897331741 0.0989442666891905 )
( 12.203860095452628 0.8288373619858826 0.1058543748637886 )
( 11.704872639461763 0.8873168701984775 0.1078937302162618 )
( 11.187766314824415 0.9481510846481884 0.1077518446923678 )
( 10.67153294915459 0.9858512580297448 0.1083036221709035 )
( 10.166227748888842 1.018475217299194 0.1077199280223888 )
( 9.633511118244902 1.046866905172675 0.1070350639970105 )
( 9.091202045564131 1.0928296621837503 0.1034907661501046 )
( 8.452269553264541 1.206438871118316 0.0954088625025174 )
( 7.677089692617325 1.3627064114686456 0.0871161385352241 )
( 6.4853480763155895 1.4275065289283768 0.0706447292031994 )
( 4.8057923844769865 1.3209073264937032 0.0453614052735004 )
( 14.948901136882723 0.4294686021470524 -0.0467132715206816 )
( 14.674975953894542 0.480307719186885 -0.0145376663693986 )
( 14.334849685072948 0.549275802439972 0.0207835954473819 )
( 14.046983259476317 0.578510916801905 0.0447241141535483 )
( 13.72705115362394 0.603768138359283 0.0654600812971989 )
( 13.386502635742646 0.6314279600304635 0.0816032109375909 )
( 13.02381869919356 0.6422443512408201 0.092730658337773 )
( 12.611210390746614 0.6721523665589322 0.1021255837748779 )