/*--------------------------------*- C++ -*----------------------------------*\
| =========                 |                                                 |
| \\      /  F ield         | OpenFOAM: The Open Source CFD Toolbox           |
|  \\    /   O peration     | Version:  2112                                  |
|   \\  /    A nd           | Website:  www.openfoam.com                      |
|    \\/     M anipulation  |                                                 |
\*---------------------------------------------------------------------------*/
FoamFile
{
    version     2.0;
    format      ascii;
    arch        "LSB;label=32;scalar=64";
    class       volScalarField;
    location    "0.0022";
    object      k_LES;
}
// * * * * * * * * * * * * * * * * * * * * * * * * * * * * * * * * * * * * * // 
 
dimensions      [0 2 -2 0 0 0 0];
 
internalField   nonuniform List<scalar> 
13597
(
0.2017235797832344
0.1990162194227077
0.192453506671844
0.1864809327009676
0.1838878606745432
0.1823856718689088
0.1819343655346464
0.1826126904361137
0.1839350277424841
0.1855196721259571
0.1878004873037658
0.1914945384508755
0.1958096760879772
0.2008844177740823
0.207011639599864
0.214652074552548
0.2229289501671571
0.2308301305347094
0.2406006661673803
0.2094583020861154
0.2071616415593522
0.2002376007443768
0.1959859342472488
0.1942302662129152
0.1925896262627574
0.1910601125933509
0.1906611024641159
0.1910450650832061
0.1905779534664921
0.1905048435906832
0.1916307722889891
0.1935211217730003
0.1970958802348356
0.202280437676528
0.2082613654971054
0.2142423110371964
0.2206217335559537
0.2281881821446431
0.2147894672219487
0.2117590424559564
0.2043393344368466
0.19931065043996
0.1959941512212105
0.1931553422559459
0.1898922763353736
0.1874729233120096
0.1860395975210572
0.1849325776713232
0.1849673814816109
0.1865434593029547
0.1896087462728081
0.1937809704638556
0.1983637799985547
0.2025198694066306
0.2059990851965218
0.2093338641302389
0.2124086261070159
0.2157631259403058
0.2119002648021949
0.2042688748932673
0.1984134950918977
0.1946671934073681
0.1918700075338311
0.1896757902554407
0.1889026317443937
0.1889709242311606
0.1894834217110756
0.1907753458253241
0.193140194247207
0.1955803266070499
0.198358230497111
0.2005433819214104
0.2016185158748387
0.2022084190046718
0.2023769397852527
0.2021574441708473
0.2158038399139358
0.2106726977139746
0.2035389253913638
0.199566098127444
0.1983211544699645
0.1985270006119988
0.1996776979391952
0.2019797512560935
0.2038335835259205
0.2050217295069965
0.2061046250579317
0.2074473264072731
0.208245955765977
0.208877510608041
0.2093285628126338
0.2092901920917017
0.208938515084876
0.2084751766925407
0.2078815003579681
0.2156932349219864
0.2108461540299689
0.2064122907017976
0.2069962681079918
0.2096923829609526
0.2137006734050233
0.2175242139753375
0.2214138868635196
0.2240896263351624
0.2251965398267863
0.2253191973669522
0.2241923487734934
0.2232746026038339
0.2227691778291928
0.2226809188545955
0.2227011477479945
0.2231217252440164
0.2237602598894041
0.2244066455254091
0.2162605518817763
0.2139835987264731
0.214708253575769
0.2203998735470463
0.2267479506422769
0.2334495449510751
0.2383506323341201
0.2417828374741235
0.243775447745493
0.2432151728542674
0.2416157596483018
0.2393327961137467
0.2379084944180311
0.2376423027794877
0.2383175607976347
0.2397363456401546
0.2416316077209175
0.2440306575077816
0.2469219234739361
0.2199400027784453
0.2212843612245577
0.2271596802612052
0.2370290774215624
0.2457562003632279
0.252809591786881
0.2567757338736202
0.2592307711265156
0.2601400624226752
0.2575165524851532
0.2551345800832931
0.2537195949572691
0.2526640109791123
0.2533070212639471
0.2552877252007986
0.2585308352694619
0.2624599871566624
0.2672945075121199
0.2730650482522672
0.2260498994547531
0.2312945685753261
0.2419079813687108
0.2542687562501021
0.2638484695778988
0.2699407325741713
0.2722084644343406
0.2727977074833299
0.2720137397645361
0.2696474954156174
0.2673439446350246
0.2668288501247697
0.2671017837983251
0.2695159589211596
0.273687495101419
0.2792707800267545
0.285916667625735
0.2938568935107253
0.3032355132174666
0.2338801647459281
0.2427388706971397
0.2564402225347779
0.2697265228949591
0.2782176542076626
0.2831607407283819
0.2849050113292838
0.2842810519612406
0.2825531727356239
0.2802968606823726
0.2784696100591895
0.2788013043531246
0.2814619184412273
0.2865260025892657
0.2936620272893672
0.302524838351785
0.3128281927936636
0.324338669130144
0.3373654558171572
0.2419231714490609
0.252679313799506
0.2691262446517186
0.2823017233717791
0.288840654465159
0.292783920664651
0.2946156228798467
0.2940893083731026
0.2920254970277922
0.2897231643970671
0.2892515077611288
0.2917442560684948
0.2972281860306383
0.3053134424869804
0.315946263175133
0.3286885177033573
0.3431015638708547
0.3583238226781858
0.3752880979525448
0.2493604251218006
0.2618158717515748
0.2797175762838255
0.2918331940206858
0.2974699976247297
0.3000434898663713
0.3012309844902671
0.3008269796699047
0.2989757935462187
0.2981453050374634
0.2999332571804383
0.3058011773469855
0.3147240524761961
0.3265503058862665
0.3412837169949624
0.3578947341293657
0.3760951278826228
0.3958031123196744
0.4178348568729239
0.2560919277975052
0.2702870254194722
0.2881192915825485
0.2986922158143377
0.3037432436711049
0.305438757125474
0.3058775650245185
0.3057942513347382
0.3055691046644069
0.3067133362633749
0.3113589404242584
0.3208981810693789
0.3339054467287243
0.350532986465336
0.3692440798212876
0.3893804357584043
0.4123765854554164
0.4377441485278021
0.4649666627461079
0.2614643941498942
0.2759808589081065
0.2942739941240958
0.3034332508773714
0.3077225420786539
0.3096998528435782
0.3100625880767949
0.3099998799631531
0.3115445907422148
0.315541860272391
0.3236567339602596
0.3373995176966417
0.3548841210225719
0.3756456461423589
0.3987262723134467
0.4240728606921243
0.4528575004585121
0.4838882258893474
0.5167537954544423
0.2651464177650163
0.2800118917007562
0.2987488709783419
0.3067584982682551
0.3107085351869695
0.3125150763528796
0.3132352152727305
0.3141204132881356
0.3178753685458547
0.3252111628343329
0.3373389932604322
0.3555354953054284
0.3780783161147485
0.4029479396843927
0.4308410256531325
0.4623950055724395
0.4971181372768855
0.5345160231744115
0.5790529605402617
0.2669210976692652
0.282389010779368
0.3006554509102389
0.3087115069230757
0.3131473721368019
0.3142970006309493
0.3158286333242462
0.3189772038607006
0.3250489610420897
0.3354249274290135
0.3523162875138617
0.3760055683036919
0.4031061125960642
0.4320996954326498
0.4651478223037136
0.5027125061402343
0.5445479584478989
0.593741018926674
0.6589015242777115
0.2672637219177902
0.2830075090530547
0.3013727059852957
0.3096247789659197
0.3139531100949533
0.3155505375098824
0.3185015248657807
0.3236468057616505
0.3321532141255635
0.346413047819271
0.3672737064218669
0.3958440689407098
0.4278976847619642
0.4621825312301115
0.5012669087025242
0.5456854937441461
0.5978427597259262
0.6662351667926845
0.7529971889906971
0.2679784618038405
0.2836412950978795
0.3017166480257023
0.3096310169291986
0.313884911283946
0.3166900276658567
0.3212729833624062
0.3281618778221439
0.3398861189329913
0.3582383498975628
0.3835171085577264
0.416545507992904
0.4534877307890247
0.4939455477376198
0.5398251615463526
0.5925217903897574
0.6609900865010275
0.752536943223379
0.8416197022249803
0.2679788992455125
0.283010377142814
0.3008905827063838
0.3092260031204459
0.313626959885908
0.3175817729133641
0.3235658178182672
0.3328364291911695
0.3482260943066563
0.3705755607372476
0.4012195283765528
0.4383840230294369
0.4805662594216185
0.5278566016105175
0.580463722913116
0.6459925037865253
0.7367954651950201
0.8499224995305714
0.9168138070951548
0.2663179285747707
0.2809355030508266
0.2993002351856496
0.3079644609197521
0.3131132994678594
0.3186020968511336
0.3261832166483295
0.3378809540378805
0.3564932018123994
0.3831213132496526
0.4185923920314126
0.4610261053731692
0.5089613088058216
0.5619264605968423
0.6258008466287411
0.7082391816912823
0.8231558033855795
0.94881828063862
0.9737885499897424
0.2640077436096161
0.2784326901950149
0.2966703377390973
0.3055759114956694
0.3122561992030402
0.3196599460816673
0.3290816902800975
0.3427694970400239
0.3646607877856672
0.3955475291944134
0.4361843132766848
0.4854088471631568
0.5376948584167389
0.5952339959692602
0.6729851886870704
0.7796217906616066
0.9181833173987136
1.0402766109624866
0.9806383694705496
0.2615403361653978
0.2755325125494317
0.2940979618371926
0.303611279028597
0.3115305012762521
0.3210334119608041
0.3325692646656763
0.3481678332653471
0.3736830818939792
0.4085766229681116
0.4534166515219513
0.5065839125934234
0.5636090015161827
0.6318040320549843
0.7236389172235608
0.8565662965554395
1.014672298073126
1.116898387758199
0.9193318005967116
0.2588227137474392
0.2727680266229086
0.2918750321721962
0.301828353375957
0.3105802356302206
0.3220252478526705
0.3360644527164332
0.3540392159866775
0.3831445259150279
0.4228939053209092
0.4713914410468962
0.5272232043266968
0.5896985055278621
0.6699069426814659
0.7829908621411608
0.9399230213376036
1.107978355545466
1.1450314178349
0.8465743320152253
0.2552831515672075
0.2693061185790457
0.2893806979871817
0.2998850638874631
0.3099103547545714
0.3227153588477429
0.3383467212120563
0.3590807468504857
0.3912668359015667
0.434744781871367
0.4876111345957636
0.5497739024329628
0.6200939159729867
0.7117015948065045
0.8465617649532096
1.0255896908772597
1.1937511382501365
1.1344640476062866
0.7762238508973957
0.2516124172352207
0.2658705644768207
0.2863449684259672
0.2977024607360414
0.3093180505845938
0.3232572121574369
0.3404387486344293
0.3638110098893602
0.398344658967303
0.4449637493261448
0.5027994882303658
0.5713652089257132
0.6503707503475215
0.7598323452024043
0.9127498619952727
1.1074963671706786
1.258724782906859
1.1144347653100466
0.696505162556397
0.2485625095140743
0.2630279858404565
0.2835456487371168
0.2956483532379269
0.308719921460217
0.3242536931216316
0.343084924136606
0.3684787968886109
0.4057300156507823
0.4569222240691584
0.5186020375901895
0.591610702606728
0.6796990718020741
0.8055192253959689
0.9770542162541996
1.184819209321753
1.2813492068667205
1.06322081526577
0.6364757894071035
0.2450275626877864
0.2597085967261762
0.2812733628009472
0.2945460557079143
0.3084259827122056
0.3254662202758911
0.3461476195213683
0.373916764749659
0.4140153819734576
0.4686420451075437
0.5337860440387302
0.6107134853877129
0.7080538601725116
0.8461472340219316
1.0386675469748876
1.2522287123974536
1.2898574670211589
1.0041972562530517
0.5856483235731407
0.2414183773603584
0.2561664714939694
0.2788062897576518
0.2938880598617257
0.3082786401055412
0.326273691798218
0.3490315629484326
0.3788611492791653
0.4214253212192234
0.4798319889945469
0.5495320123902178
0.6290127517721127
0.7343473433504473
0.8872230071363753
1.1053428759766797
1.317200926362692
1.313295928559018
0.9656122388468488
0.5425854580895675
0.2382160966263136
0.2532548683826157
0.2762375808940566
0.2927789005796257
0.3083212113740872
0.3270158752334954
0.3510870978753045
0.3826859786873958
0.4278341738717933
0.4897139893250656
0.5630581367511658
0.6486299634522443
0.7678190579764113
0.9318687361210384
1.1652158634857264
1.3668806814078265
1.3173359121961188
0.9309481820356164
0.5161792266512297
0.2348385553077528
0.2502767759352675
0.2740868042152756
0.2921289456018272
0.3087631515470766
0.3279256502143474
0.3528847341729649
0.3865110136068456
0.4345210800225266
0.4976767661343408
0.5731150371381224
0.6680354398389226
0.7977406835507034
0.9744133310893082
1.216345643925318
1.3670915223901776
1.2713581476616835
0.8956507967093535
0.5004203087933118
0.2312523542327069
0.2469875518177849
0.2722685872670284
0.291756378831643
0.3091898518097427
0.3293411639246932
0.3552570108891018
0.3906672231285574
0.4412497563675017
0.5059778285133526
0.5841970533775243
0.6866661587565298
0.8201420142384193
1.0123175227741514
1.2623604896600138
1.359753442688399
1.22212017375645
0.8635649637254181
0.4889769907545331
0.2278013578112028
0.2441422795930374
0.2705607271376506
0.2906887576936627
0.3093289644854261
0.3307512390121297
0.357719589534578
0.3950434902080331
0.4472860693883932
0.5139082488406495
0.5954090293426851
0.7035121153530446
0.8436501653734371
1.0564523247020736
1.3050989608603294
1.3765417944722238
1.2103163500934395
0.8362561734511603
0.4747184411215579
0.2247002913602808
0.2416395813427465
0.2691188314010974
0.2898800076588856
0.309353199237202
0.3310459385347189
0.3588916756582981
0.3986077201988665
0.4525780241168318
0.5216545354796268
0.6064407587339486
0.7188093660264765
0.864179309118284
1.0929976614230934
1.3457790160187229
1.4011559556564577
1.2121170916415052
0.8169457156405903
0.4588124671615453
0.2223098554488269
0.2397584026814782
0.2677464477027137
0.2889569311853848
0.3092437510134076
0.3311782779908574
0.3592671706847715
0.4009586642496396
0.4570977403386835
0.5299340666038193
0.6189533649014497
0.7337593154652496
0.8827277554132571
1.119926885140876
1.381630041457561
1.4266682230266816
1.2165335221611742
0.8053104803846668
0.4490848780168409
0.2206351792726371
0.2384291347302215
0.26656016489805
0.2878899241698034
0.3091337202013816
0.3318690675642321
0.3601888563324557
0.4026602615065014
0.4609081270370381
0.5366756383785135
0.6286831903668252
0.7462550645243198
0.9017619527632772
1.1471555886475298
1.4086712868639946
1.4412467013331254
1.2162512734083877
0.7960740121075359
0.442737775334233
0.2188957544711744
0.2370428554360937
0.2657964951341018
0.2873540746823697
0.3091586442761983
0.3325297816153534
0.3612456991624186
0.4043588208905987
0.4646682016507892
0.5415716846314668
0.6358615525791261
0.7571008713934708
0.9188189328562189
1.1677253707638902
1.4297835820970723
1.4541815560045075
1.2115548358357753
0.7848526555861253
0.4353415355403533
0.2169182502486822
0.2355089265462825
0.2648273490769195
0.2869063273048788
0.3093472567978057
0.3335401339063128
0.3630159198431728
0.4065530728092922
0.4682946363949261
0.5461496144197888
0.6426315526098071
0.7678811525312939
0.9345628483563224
1.1868301879338468
1.4477264766809708
1.4612452909920837
1.2116498534649347
0.7817785545348244
0.429019640017605
0.2154602304509903
0.2344562560071226
0.2636151995613563
0.2864390164666956
0.3094479212880788
0.3337395043888189
0.3644623537570458
0.4087680724722955
0.4721286091064051
0.5503926075931417
0.6487911369427242
0.777954392114348
0.952731919431983
1.2072496287562602
1.4562019067425584
1.4624792111789708
1.2074289438435657
0.779714056720327
0.4255460771395033
0.2141988987102801
0.2334914408698879
0.2625618476070526
0.2857765352607708
0.30932754733326
0.3332588072014424
0.3644648182712083
0.4095939033353292
0.4749577864122543
0.5537081441705359
0.6534100310873227
0.7857137094343773
0.9699011191085004
1.2291829864750534
1.4599319351549824
1.457847627424028
1.1960224240469834
0.7715947503303731
0.4243442412108483
0.2126249196261704
0.2322794327081535
0.2618320006591755
0.2851080703917922
0.3091663375395148
0.333364899279559
0.3643838678309001
0.4096302095979089
0.4759209385527253
0.5553566617754389
0.6560053715688422
0.7908536469874079
0.9800664978464698
1.2461086945533026
1.4648111503109478
1.448345525023338
1.1883248861044766
0.7671171274006294
0.4241231011896982
0.2111087785586272
0.2311329922046881
0.2614233239569195
0.2847595288776687
0.3090043154975084
0.333784601419617
0.3648570335895718
0.4105210971237615
0.4778530484290153
0.5586515706352738
0.6592062317064163
0.7966003010587771
0.9887849587214907
1.2551809984952262
1.4641542348867571
1.436009431469816
1.1783886160814914
0.7618554265576498
0.4241653162302543
0.2098179521749245
0.2303703814506268
0.2610207714111765
0.2845707496807457
0.3085424803821184
0.3340645648688276
0.365901483588367
0.4117948820841255
0.4801428326213864
0.5636648095092959
0.6642258246880193
0.8024977352254794
0.9960707210594852
1.2589218344362585
1.463602699951367
1.4306350940033117
1.167918192370266
0.7532614419868524
0.4225698501211053
0.2086106745144405
0.2297810905806937
0.2603376539445045
0.2840129559758184
0.3081600252855976
0.3343488224427073
0.3667387032908907
0.4121273536924988
0.4800380897755479
0.5661484634573452
0.6684541712869406
0.8058045653604506
0.9979760671218076
1.2649206813200629
1.4722862502689142
1.430627126711265
1.1596978041627743
0.7458989075676953
0.4182962066320664
0.2078945367727499
0.2288679699307348
0.2592864138652927
0.282938021824354
0.3077203918532372
0.3346419669969136
0.3669679461777256
0.4124123748440761
0.4809772969375687
0.5690066012703874
0.6723769098550151
0.8102898958537912
1.0016235412381398
1.2710133585459331
1.4705161901960206
1.4198641973329325
1.151631592848994
0.7416945295715227
0.4162277563652742
0.1977299712903282
0.1986969769504067
0.2009164648688334
0.204849669549188
0.2086195190006965
0.2107614751963177
0.2119365733077028
0.2128092483753581
0.2123205830355639
0.2104411224576778
0.207975428381725
0.205533478377939
0.2038144160153716
0.2016323004910989
0.1991180024570245
0.1972761039814535
0.1959124620616411
0.1942963023979025
0.1926579320821
0.185329558412985
0.1845972359263358
0.185612085735013
0.1893964187867099
0.1918561256587909
0.1936576717089356
0.1950613097251681
0.1954703868750139
0.1952828157630835
0.1951925450175762
0.1945891883934404
0.1946073335458015
0.1950271772460839
0.195331692648419
0.196304153758877
0.1976303386432653
0.199366404216308
0.2016441471257309
0.2041537751718207
0.175511800540588
0.1745543044019233
0.1764161191930437
0.1821454285882278
0.1853801486973759
0.1878823791356792
0.1902832698518159
0.1919195189055068
0.1928182513025448
0.1936721374554766
0.1945972990906222
0.1962647856983383
0.1984010538710598
0.2010913280269813
0.2044738053082805
0.2080597170594531
0.2112691160149997
0.2142597883021996
0.2173350910503812
0.1685486836486636
0.1688148326589789
0.1735915062759297
0.1810344110356118
0.1847380542867613
0.187619946019301
0.1897212571596694
0.1912144205684413
0.1924119031985049
0.1935222029034809
0.1952724358909451
0.1981071509290522
0.2019527401026591
0.2064522959281195
0.2106881019756297
0.2146702285626239
0.2184054677380822
0.2224221819997943
0.2271366657139369
0.1650197546178303
0.1675887360326712
0.1742935319917593
0.1821004448105937
0.1861863292955922
0.1889632252015259
0.190600783216754
0.1917394989131742
0.193302336686833
0.1952646238108585
0.198447527411571
0.2028617200335018
0.2085397618013391
0.2152451051356206
0.2214564816859795
0.2274415192196324
0.2336635399785843
0.2403192542769468
0.2477916609113696
0.1646247203855395
0.1700437249741128
0.1779766397325139
0.1850928606844602
0.1888768400611845
0.191103450240514
0.1924679737192491
0.1940941043975425
0.1965571035172836
0.2000369778498564
0.205087977474824
0.2118269117811886
0.2202231114939742
0.2291867167335673
0.237876812932393
0.2464290608076254
0.2545953229033669
0.2633783982979396
0.2734748162527718
0.1685989879422813
0.1752746376370238
0.1832127214103181
0.1894130786004001
0.1919910159188401
0.1934950326465306
0.1952247341725095
0.1978273751777398
0.2016660119081333
0.2068321023112472
0.2141405668036616
0.2239214041718072
0.2350355152873902
0.2461457705170363
0.2571261238765482
0.2677638343316574
0.2779789396427815
0.2889161712258603
0.3008476412463877
0.1752250642741386
0.1821302129426036
0.1891302426034782
0.1934820016654395
0.1952274043818177
0.1967665241982109
0.1993621493749576
0.2029940635983106
0.2083267299631468
0.2155852922290794
0.2256328511717901
0.2385417930038558
0.2518748629903872
0.2651684361423296
0.2779118157380287
0.2903223203033296
0.3028572990791125
0.3163264366628339
0.3307190210730917
0.1839114961725247
0.1900627869172436
0.1945959254207949
0.1970958995922417
0.1984471022414584
0.2005953516438064
0.2043474060877023
0.2097651630417982
0.2171955900896597
0.2267676184251648
0.2393212364368706
0.2546122626408565
0.2701901945800136
0.2854355951919596
0.3000989178444264
0.3146843166228348
0.3298363929287332
0.3460063613369246
0.3629840957014469
0.1919333309671938
0.1959949586505464
0.1988800888878154
0.2004142303546669
0.2015222795843943
0.2049679264717378
0.2102759625131012
0.2173645116275379
0.2266681997497522
0.2392314259490072
0.2544488878684512
0.2714622444834071
0.2892477184457681
0.3068689881993398
0.3241716864605807
0.3412873801232555
0.3594359506039402
0.3782328977093027
0.397460731621206
0.1980943468205075
0.1999149442843316
0.201471644242233
0.2032259029855553
0.2056392085598115
0.2103586988457631
0.2165570550451343
0.2252916043167206
0.2370952257426192
0.2520157406946916
0.2696301711061719
0.2895616005644111
0.3098622717896884
0.3301276395221851
0.3502986611434597
0.3702152778109902
0.3910135865819855
0.4127740651101407
0.4351524352068017
0.2030335360116307
0.2028624683133174
0.2030868140242272
0.205848023175671
0.2098322340612944
0.2155846898019084
0.2233718809845274
0.2347191402676079
0.2490879262898507
0.2658367240909265
0.2864640949047199
0.3092510711696637
0.3317563903528655
0.3545375924952783
0.37768969596267
0.4013648655433314
0.4254540422289439
0.450737949725488
0.4774940158146277
0.2059130026139217
0.2045203942706632
0.2053447616771462
0.2088013398475265
0.214197365448287
0.2216544161515397
0.2313259997902437
0.2445029687906397
0.2612363999054925
0.2808508943886038
0.3038163798888441
0.3294906190683153
0.3546857948118938
0.3800021275333818
0.4067955376718609
0.4344236897949816
0.4629404920159168
0.4930921067970569
0.5251937312042302
0.2075588256334881
0.2056705353210457
0.2078097284824466
0.2122955885988004
0.2192311088720603
0.2283343880064678
0.2399699681502094
0.2552106515186275
0.2742985228192184
0.2964015458609363
0.3215316304842626
0.3496360963793657
0.3782079653044923
0.406718993624921
0.4377170385639461
0.470725261151688
0.5040346701461113
0.539442933528903
0.5779079744136218
0.2088004075316578
0.2066756385591797
0.2096957446164924
0.2160875073617521
0.2249081295137774
0.2356335097380774
0.2490974880327432
0.2660461824899068
0.2867973426792978
0.3111865017659787
0.3393700127087696
0.3697476210910678
0.4021059516962031
0.4357022965707194
0.4707084049523027
0.5089168650749847
0.5484338066634307
0.5910353334303194
0.642282451064022
0.2094206361668009
0.2074136730125305
0.2122261501952291
0.220289981461224
0.2308570860798749
0.2433772717859993
0.258322394178813
0.2766928523439629
0.2987253374329146
0.3259478585493238
0.3568065330914798
0.3906587147642485
0.4277010386278407
0.4665030782656054
0.5060050577304728
0.5479691129878396
0.5954863499645429
0.6520215827456082
0.7231841996217035
0.2083903727351723
0.2076092287939009
0.215632594326243
0.2247292259170368
0.2366309847143749
0.2503334208470856
0.2669110599342539
0.2874384417284161
0.3113364627936693
0.3406651736198827
0.3740924768639556
0.4126504871271956
0.4540137837472417
0.4969847231547529
0.5422549494373788
0.5909540728622992
0.6489083392731881
0.7251470093676675
0.8150392538881116
0.2060358122317121
0.2073871166150271
0.2190415200422099
0.2293355619375193
0.2419072609521334
0.2571223478279613
0.2755514040436921
0.2975783463158756
0.3239582876635494
0.354840900714878
0.391575883514661
0.4349489003049685
0.4807597648843248
0.5289083349194672
0.5799822074929842
0.6388498174343713
0.7127445914383396
0.8146227180672736
0.9093157567658836
0.2038985290104909
0.2079456377719982
0.22153658499719
0.2338495070054198
0.2474600741147138
0.2634791430044367
0.2831859205913395
0.3068757408071532
0.335734027488016
0.368942839695792
0.4092814668624591
0.4565050241806921
0.5079241941565065
0.5614976348146105
0.6189062592800817
0.6921849622417803
0.7886954770319241
0.9106694452085295
0.9804097846946388
0.2027404220373948
0.2095196282451521
0.2243725086881877
0.2381461378747178
0.2529791267706208
0.2697832387138961
0.2899936869921366
0.3152500692168186
0.3464870732712133
0.3828075312779224
0.4280151490786209
0.4798576888357718
0.5357696250367288
0.5951707238009123
0.6613504057899618
0.7509791081199135
0.8756142546059561
1.0014841529695024
1.0228281200103393
0.2024346955165304
0.2106693841207061
0.2275623227273584
0.2423602507548706
0.2580110401941498
0.2758939723159088
0.2976645624475438
0.3242977469947209
0.3564022052460181
0.3956289149751391
0.4457877190424338
0.5035743153252841
0.5637917653815583
0.630998017031087
0.7108404708573602
0.8196368781415824
0.9674951937971888
1.0879370157685169
1.0269404867433958
0.2019974206193495
0.2112434081489658
0.2307550610960214
0.2467183503505926
0.2629994513033813
0.281347894784272
0.3049800238585089
0.3335107023908787
0.366859340025804
0.4087561995388928
0.4625993283529153
0.5253876420862241
0.5911451930260672
0.6665260198123694
0.7602314093283885
0.8961260882532903
1.067641662049974
1.1728156214123937
0.959492451023458
0.2021333464674982
0.2123618259496722
0.2336877365950027
0.2505906914761511
0.2674812053068962
0.2869438602989729
0.3116981800139876
0.3412417791604248
0.3778162085069175
0.4236515038869781
0.4809908836699418
0.5487124575145123
0.6213350639935138
0.7047560271007631
0.8184718356187434
0.9838463507445604
1.1633727339485314
1.1882034186884407
0.8697960318728534
0.2015604674811709
0.2135067607147708
0.2360105189835548
0.2536732740160132
0.2720755968408031
0.2926675794037724
0.3177356613499219
0.3477020121920178
0.3868065532239349
0.4375966165266944
0.4988449829842978
0.5712065982063388
0.6513990825081509
0.7455417638525942
0.8825595983098665
1.072697004484206
1.239944090323758
1.1574877452791317
0.798650575300767
0.2002694729761237
0.2140099284168715
0.2386404503247157
0.2570342647556063
0.2763995994272476
0.2975411757573525
0.3225861234263805
0.3538599741706389
0.3950507676162836
0.4500441617215364
0.5170814730398007
0.5937580024486303
0.680183181061154
0.7914767492306616
0.9494337879376432
1.1489058556178218
1.2909535570618351
1.1401551434911232
0.7276716934727941
0.1999623933165712
0.2146154742968266
0.2411095052228541
0.2603835207816067
0.2798970655384107
0.301514185292776
0.3273951197830145
0.360240140401679
0.4040407567193614
0.4623201726476925
0.533838325609463
0.6154042732170627
0.7065705093533734
0.8340895991904529
1.013886019657555
1.2163543468899574
1.2933056535750158
1.076816565208173
0.6591221577606271
0.1999238766165333
0.215386732874836
0.2429421609030949
0.2631176755622082
0.2828959901070118
0.3051914394856766
0.3328274341972794
0.3667215257084682
0.4124706363307666
0.4730633353519096
0.5488984996282544
0.6366614722488573
0.7347610415198232
0.8731137278265161
1.0708054935901554
1.2784560262031814
1.298744768625856
1.0154046138006383
0.6007526851010621
0.2000800643124047
0.2161922500052736
0.2444875029157792
0.2654702458505407
0.2856094014013379
0.3089033184133211
0.3373328036023394
0.3719874251098802
0.4195732164672782
0.4831338164284767
0.5641155777816138
0.6560841050018276
0.7646751499905222
0.9174214306142032
1.13350503573999
1.3448203624570692
1.3264068395738815
0.9856721198705763
0.5626029263837274
0.2005934061243809
0.2175183756733584
0.2463262822735472
0.2673565026809172
0.2879968652169631
0.3120840110362867
0.3408412914597669
0.3771338634068834
0.4266692220376386
0.4936854448829728
0.5767778062184852
0.672566049333213
0.7936419662957475
0.958940847470277
1.1855453567114516
1.3798471872731612
1.3226891031906476
0.9535263357151114
0.5368910272642192
0.2006338475299278
0.2186284837954722
0.2477954945996922
0.2688508420822733
0.2899875245097915
0.3144619030841685
0.3440760458094521
0.3828322362039051
0.4334116800378866
0.5024158167547127
0.5890123077339727
0.692221194506484
0.8244211728769327
0.9949678938331368
1.2284403271978102
1.3801210812187923
1.2704396655178078
0.903625372988298
0.5116217104866915
0.2003407065529109
0.2194564879914095
0.24873896027401
0.2699919028680522
0.2917552190975789
0.3164473444356779
0.3467847331639706
0.3880843076017836
0.4400060609415036
0.5101269272974001
0.6003459202074933
0.7088316556798994
0.8452862124228222
1.0269928354475388
1.2757912238433544
1.3831025748464465
1.22062604461781
0.8564007368648797
0.4889590161550752
0.1999487566261368
0.2200176832985902
0.250046539542621
0.2714490131043545
0.293809002233763
0.3187948156130346
0.3497371209458878
0.3923782351690918
0.4469150851749121
0.5197332557063089
0.6115305361216783
0.7225564661265699
0.862357901574315
1.0614151852429583
1.320942162973121
1.4009874884598603
1.208562413246931
0.8272944027893381
0.4692695954462047
0.1999816496846315
0.2208136249910493
0.2518678787047885
0.2730841368781363
0.2956931080457253
0.3212421092217563
0.352579611023708
0.3953154041798474
0.451915254600501
0.527998590578993
0.6226450648494497
0.7373695759459863
0.8834469852298167
1.097173680122446
1.358099422165692
1.4250119233705625
1.2083634246438708
0.80613258214833
0.4591073371090037
0.2005499378995206
0.2213941019157178
0.2529313718617521
0.2742669117893617
0.2969080728517562
0.323139349781294
0.3553090058426753
0.3980207543957608
0.4558071237213076
0.5331302390128991
0.6290097328802111
0.7492833177991564
0.9007938467334898
1.1265137815199502
1.3838063268943266
1.4375489869488294
1.2097302377237975
0.7906352590096685
0.4486031631422738
0.2012036856216338
0.2218353363306578
0.253641515120135
0.2757283479839387
0.2986267361282759
0.3250201037257764
0.3575092974027949
0.4007853680857813
0.4611182513579173
0.5398577640667847
0.6365326187199555
0.7606870423470677
0.9131344479220158
1.1472373829740008
1.4047081891108204
1.4499341892792812
1.2115505058940146
0.7781312506371683
0.4370657359402587
0.2019572978139359
0.2227520585890396
0.2550747256693
0.2776399300500745
0.3003296523976099
0.3265845561156775
0.3592853901923967
0.40345108168781
0.4660610701979323
0.546180753275072
0.645466085866226
0.7700019597398794
0.9221758025685702
1.166508666561577
1.4308036422235668
1.4637064917519491
1.2047302498113115
0.7694761433825656
0.4328537026770857
0.2028265895757442
0.2235617713536052
0.2562103620121305
0.2789584759425083
0.3009257621609841
0.3276715366229879
0.3607757055312386
0.4055022151862203
0.4694851579532253
0.5498809056351489
0.649969623497968
0.7775822724968022
0.9358575639183108
1.1859557598849848
1.448814780437149
1.4709092532100831
1.2004770337050157
0.7661965284381305
0.4321574974378918
0.2038065684863759