/*--------------------------------*- C++ -*----------------------------------*\
| =========                 |                                                 |
| \\      /  F ield         | OpenFOAM: The Open Source CFD Toolbox           |
|  \\    /   O peration     | Version:  2112                                  |
|   \\  /    A nd           | Website:  www.openfoam.com                      |
|    \\/     M anipulation  |                                                 |
\*---------------------------------------------------------------------------*/
FoamFile
{
    version     2.0;
    format      ascii;
    arch        "LSB;label=32;scalar=64";
    class       volVectorField;
    location    "0.0022";
    object      U_LES;
}
// * * * * * * * * * * * * * * * * * * * * * * * * * * * * * * * * * * * * * // 
 
dimensions      [0 1 -1 0 0 0 0];
 
internalField   nonuniform List<vector> 
13597
(
( 17.20534155429211 1.6008608722821964 -0.0059315614897176 )
( 17.203226736952058 1.6447741009135914 -0.0014847179447172 )
( 17.210770421153878 1.7363548389909838 0.0050274229330912 )
( 17.225734952523965 1.85574271741964 0.0119510306808168 )
( 17.23818159667907 1.9577466222461903 0.0163343053360119 )
( 17.244859235641115 2.041290239832723 0.0191823649874788 )
( 17.2542006444407 2.1246022684670542 0.0210238794020412 )
( 17.265983421007725 2.213728125151297 0.0215532266858612 )
( 17.280511904610062 2.303512655146201 0.0217559868425352 )
( 17.29659301538198 2.3933190712869834 0.0212287211114653 )
( 17.31333250666261 2.49313333182276 0.020922247754376 )
( 17.335424509956212 2.594078794862217 0.0208728453103592 )
( 17.36069168231703 2.6936528015969667 0.0204993207457885 )
( 17.38636784962693 2.798986526297872 0.0208048051016769 )
( 17.413084050382977 2.907461628472439 0.0209963109800189 )
( 17.44235923931988 3.0148945318013856 0.0212838489634156 )
( 17.475341817365006 3.117598532097529 0.0226499755638514 )
( 17.510253188761137 3.2201970409070038 0.0249421769166827 )
( 17.546385501059383 3.326611596059466 0.0285337089509676 )
( 17.078851876933285 1.612823523399945 0.0190288476203334 )
( 17.05930502884919 1.66667168418128 0.0257898549173176 )
( 17.04515257131787 1.7832128688183475 0.0349095042769026 )
( 17.032854809921155 1.917629476974516 0.0432010262541101 )
( 17.019055735314904 2.021356086370392 0.046342767843543 )
( 17.003733661326905 2.1176505333688627 0.0485146748463615 )
( 16.992352764421156 2.2160020685273545 0.0490475995067517 )
( 16.981607064824882 2.319357667401434 0.0476939658070245 )
( 16.973811731383847 2.426221365232172 0.0464189213389415 )
( 16.966613371961632 2.5334537115315507 0.0457103119501756 )
( 16.95898048220469 2.652408324478117 0.0450264577686991 )
( 16.95185388139807 2.77928562242682 0.0447075297548176 )
( 16.94450022670088 2.907057071479912 0.0456981738770608 )
( 16.940194362890242 3.0386644804445693 0.0471242144600099 )
( 16.938242684438976 3.167301823621108 0.04928198390578 )
( 16.938190481376083 3.288648969308588 0.0524385560212837 )
( 16.93907992623868 3.3998895816947594 0.0561091345153367 )
( 16.939856193887234 3.512518275037096 0.0607654259228751 )
( 16.94516777197771 3.624192500058716 0.0666847167222733 )
( 16.955887861454418 1.618461537655316 0.0463343368867314 )
( 16.91892596282395 1.6789669411740311 0.0570400524089319 )
( 16.88307812585906 1.810513177181148 0.0687983282131318 )
( 16.845655007563046 1.9533022351418363 0.0775077539498206 )
( 16.80884542533451 2.059653120370704 0.0802240912596549 )
( 16.77553061912893 2.167084511670613 0.081326080770994 )
( 16.74522212568558 2.2796051028069275 0.0808948067541908 )
( 16.711271563780908 2.392635932199719 0.080358868391522 )
( 16.679335322294076 2.512667592533638 0.0796713796783153 )
( 16.648542199649103 2.643498647227186 0.0785871139952181 )
( 16.616042397555915 2.7807279624148453 0.0785077203349465 )
( 16.58311608267438 2.9276651773743243 0.079566192334224 )
( 16.550670952541818 3.07915070437417 0.082219571302962 )
( 16.521319957478767 3.2236918825254306 0.0859481896774155 )
( 16.495781007740856 3.3548438180289315 0.0901911151559729 )
( 16.473734005838775 3.471098595554136 0.0950619558539665 )
( 16.45068629506018 3.5747485880448107 0.1001896144091463 )
( 16.426743276487635 3.677933644572531 0.1057500605597726 )
( 16.409538515398836 3.7849169566330105 0.1119684244610204 )
( 16.83628939957327 1.6160839730769083 0.0776493440669842 )
( 16.78342183400181 1.6825265827530655 0.0915256770381732 )
( 16.728983459754783 1.8194622292556804 0.1021699026120326 )
( 16.66944949663544 1.9661168769659847 0.1085056698920328 )
( 16.61036661702673 2.078176693946059 0.1110876037355034 )
( 16.55608569794545 2.19037879396822 0.1112950585249437 )
( 16.49954395530161 2.312054119625388 0.1101602778815373 )
( 16.439988018076782 2.4362627924430216 0.1093870842146569 )
( 16.385141854046307 2.567631565533464 0.1084068614221977 )
( 16.331525198314086 2.710570700667224 0.1069987521185953 )
( 16.27263477245403 2.861420446222366 0.106964340530475 )
( 16.217534784004467 3.018715307265385 0.1084556067592277 )
( 16.165583029635258 3.175587159410548 0.1109287730017186 )
( 16.111860454689076 3.323434682021891 0.1149925035131805 )
( 16.06144863058142 3.4490353736503017 0.1198597653482931 )
( 16.01543905305196 3.5560613554026013 0.1244944586225544 )
( 15.970583622078369 3.652385598033484 0.1290198222964874 )
( 15.9229676756127 3.7490831644622817 0.1337587467635474 )
( 15.878026022058906 3.8572427469625983 0.1389533188187189 )
( 16.72402586372351 1.6065380011896933 0.1080618446412005 )
( 16.659239973752413 1.6804033942421368 0.1214427898833193 )
( 16.58473736040625 1.8221859904925264 0.1292837983546478 )
( 16.501916180677938 1.966919738956464 0.132697622587655 )
( 16.422253985359806 2.0809411582327453 0.1333460033818979 )
( 16.345392010930162 2.19612926392556 0.131792855519434 )
( 16.262240667223338 2.32292761459491 0.1293986571914306 )
( 16.177755761186265 2.454237341907312 0.127047495422401 )
( 16.097740045799036 2.588503610006178 0.1250214428863787 )
( 16.015524553716016 2.7336272812874443 0.123718305323845 )
( 15.927996839759931 2.8933027402626634 0.1236906229746299 )
( 15.843185300774852 3.056508340430016 0.1249714641857037 )
( 15.760498922739188 3.213177633599015 0.1275328544434398 )
( 15.676562083154623 3.3579113979211903 0.1308408413591224 )
( 15.596452147493132 3.474991562819722 0.1341861541758596 )
( 15.51990506315808 3.579260672609329 0.1375091695504023 )
( 15.446238609747072 3.678497972650644 0.1408577459652645 )
( 15.373292619495231 3.778009925739598 0.1439009736416273 )
( 15.299676350010444 3.891648759881225 0.1467974750921862 )
( 16.620214986806108 1.5893541199906291 0.1331641587672822 )
( 16.54139357656385 1.6686835307099752 0.1444952586921256 )
( 16.442943448320708 1.8168730952878944 0.1486056361355626 )
( 16.33804675777047 1.9590613006478224 0.148231507070857 )
( 16.23792306464588 2.072613903674806 0.1462019993576958 )
( 16.138734145236892 2.190697751535183 0.1422709722447793 )
( 16.03426287879106 2.316140687592906 0.1384767178768872 )
( 15.923620530401267 2.4462975246037377 0.1351958411860526 )
( 15.808667851859084 2.581277778203777 0.1326033199341157 )
( 15.690320828925389 2.7329436482073795 0.1309810112396766 )
( 15.574098748903133 2.894221699144616 0.1305174717855697 )
( 15.455749547526006 3.054729496138094 0.13110444708297 )
( 15.34018974501568 3.210553480322217 0.1327061017700095 )
( 15.229124684829207 3.3509189982571925 0.1343259742543678 )
( 15.11972097980997 3.4666878967543093 0.1349134106339933 )
( 15.019032756180184 3.5685337480527366 0.1354087932110591 )
( 14.920655278831086 3.667002362322259 0.1360202492304385 )
( 14.822224758199264 3.7679965216144735 0.1360288653962474 )
( 14.723347676663026 3.885275012438416 0.13602544789173 )
( 16.51607377302443 1.5666848570246683 0.1520412148588725 )
( 16.421366390768775 1.651948231421026 0.1597584739550151 )
( 16.300672729147013 1.802000011437688 0.159613328869183 )
( 16.174591639796322 1.9384835943469436 0.1557328312787261 )
( 16.053611431068152 2.0492962998455293 0.1514845846756622 )
( 15.927413715497096 2.164713733550609 0.1463051397561815 )
( 15.796758291272742 2.2887913663110204 0.1410971990090375 )
( 15.659310704411569 2.418424462472254 0.1366854454696929 )
( 15.512704521553866 2.5521045234341035 0.1327791356481886 )
( 15.368214467704384 2.7040829388665277 0.1304018208186441 )
( 15.221170159863522 2.864830141359273 0.129000113158017 )
( 15.068456452903568 3.0257985201502016 0.1276056932503442 )
( 14.9248467772283 3.1773307902679666 0.1269319988185791 )
( 14.788225432957454 3.312133655640512 0.1259573649563236 )
( 14.652773493154092 3.4305026841795145 0.1240995564979266 )
( 14.527036236087756 3.529161473650888 0.1222848516421035 )
( 14.406276249990508 3.625320554595704 0.1204639989407209 )
( 14.282860470144414 3.731244360908621 0.1182199848841343 )
( 14.159532584152036 3.852664143606653 0.1159350892753158 )
( 16.415732813804606 1.5405038817671213 0.1630965436321259 )
( 16.303137891766706 1.6265243945729404 0.166126997956799 )
( 16.16062007740693 1.7734260565977185 0.1631463630127224 )
( 16.012296373764375 1.904060735542947 0.1572263827973139 )
( 15.867195778702133 2.012052750685094 0.1513442977174511 )
( 15.715809367694783 2.12599419291108 0.1451960390155403 )
( 15.5567258848487 2.249481663204702 0.1383742366238229 )
( 15.39406755582232 2.3742495487802078 0.1326138553043638 )
( 15.219631818818383 2.504119099354196 0.1277771013157843 )
( 15.04689030743431 2.657375080470868 0.1235972020906736 )
( 14.868246669177145 2.817705275198702 0.1204328216944608 )
( 14.68898938108177 2.979193763682329 0.1173404517841702 )
( 14.519764047407053 3.1294813887059587 0.1140393726128269 )
( 14.354577514979606 3.2563869549763305 0.110158380429652 )
( 14.201477044211464 3.367222412734784 0.1063905013390591 )
( 14.05329739787972 3.465606119563849 0.1028337226406529 )
( 13.908346816191488 3.56559362497972 0.0992125033103568 )
( 13.762663983929231 3.678000763288259 0.0958805265885999 )
( 13.617800121721691 3.805413281655864 0.0929906013995405 )
( 16.316582037330353 1.5059594835135537 0.1666660564746503 )
( 16.183991337365843 1.587645802580298 0.1659193177021631 )
( 16.019113763813678 1.7303961016151872 0.1612957302432252 )
( 15.850444748061394 1.855805584453089 0.1544780297056042 )
( 15.679741859820728 1.9635753143150068 0.1477455613840088 )
( 15.508074287747402 2.073889470940664 0.1402718725653861 )
( 15.327450595773383 2.1906395023350824 0.1327226381601015 )
( 15.140858074046342 2.316332527769671 0.1259204157763601 )
( 14.943525725404246 2.447737330506887 0.119813005397582 )
( 14.73487909198252 2.595561930454012 0.1131592787184172 )
( 14.528128394970354 2.7550886435624524 0.1073077674082697 )
( 14.32947712851705 2.91374623542994 0.1026950818959407 )
( 14.131720987581334 3.061995268579019 0.096798547235095 )
( 13.942134315776537 3.1868178577340136 0.0910243551212554 )
( 13.772300523348171 3.2922991611804493 0.0866155787883908 )
( 13.602662584066714 3.3926922740599896 0.0820787595789528 )
( 13.43391794264149 3.494733071182803 0.0779105034158143 )
( 13.2657329683323 3.609974435337432 0.0753591532059727 )
( 13.096051844718328 3.7433740863146503 0.0741050832857818 )
( 16.212965447509237 1.4694931237314384 0.1651844412493357 )
( 16.060380122762684 1.5517504532297948 0.1618839217422638 )
( 15.875178580945075 1.688005577967303 0.1565494776146528 )
( 15.688716725256796 1.8027157237281053 0.149943616781819 )
( 15.499719746336396 1.908899491791721 0.1416718713287686 )
( 15.307660454833345 2.0114601090274653 0.1331100902442933 )
( 15.10335221181729 2.117461742295807 0.1246184918852202 )
( 14.887995084499964 2.2392532467728623 0.1161334844332326 )
( 14.670123493494494 2.3685034348107084 0.1083139471197357 )
( 14.440143550017211 2.5138862145029903 0.0997822039818188 )
( 14.210466002961825 2.6771018183990893 0.0917687997968075 )
( 13.989041641476836 2.837710657745109 0.0851213306855458 )
( 13.770096178983511 2.9803341950014968 0.0784794777983401 )
( 13.563841254189144 3.1043728452301025 0.0728102793324552 )
( 13.370402236812886 3.20941419823247 0.0682451260168456 )
( 13.176714751860477 3.307532403497702 0.0643463087626621 )
( 12.981700049900596 3.4088870342267965 0.0616756488032834 )
( 12.789221140762464 3.5255407459009453 0.0604852914756771 )
( 12.597062734151256 3.66616222556365 0.0601657838478896 )
( 16.111759002546588 1.4330631349963214 0.1607750100673475 )
( 15.943991486239874 1.5150535338255604 0.1566137231011055 )
( 15.734889865437902 1.642165435238648 0.1512697724165042 )
( 15.5340639609856 1.7452642553705011 0.1435838664057902 )
( 15.32880976455119 1.8434944576443664 0.1337084466754781 )
( 15.11370532652926 1.9395795543240413 0.123926389495199 )
( 14.888654339782068 2.0363254885831643 0.1136013173628425 )
( 14.654527784644182 2.147946413500172 0.1035545988020628 )
( 14.414708747421267 2.278054093446677 0.0945761569671893 )
( 14.168632103843674 2.424417935336249 0.0847095163399407 )
( 13.918089267615231 2.5855188360202184 0.0758224340502691 )
( 13.667864006598949 2.7499874084064326 0.0683989001962696 )
( 13.434180237028729 2.8894915890723465 0.0621721868385659 )
( 13.211474220594605 3.011926999171932 0.0576779885726442 )
( 12.989711462746293 3.1172653424275567 0.0537682845286068 )
( 12.768910774257725 3.212115248060159 0.0509471841176761 )
( 12.54995668514163 3.3140315721108786 0.0492613049237612 )
( 12.337759799118324 3.4347445695561305 0.0481402508902391 )
( 12.122695424914236 3.583676578424144 0.0477929716436679 )
( 16.01049673988831 1.3909344966513648 0.1547969080436268 )
( 15.82600022968508 1.470527447068442 0.1502703402918281 )
( 15.597204658111426 1.5903754804670374 0.144308346253834 )
( 15.383983867938158 1.6813793335313507 0.1353983819700626 )
( 15.161819438523755 1.7673024830694348 0.124708471647366 )
( 14.92729741947944 1.857812963595978 0.1128526023250553 )
( 14.689577742184811 1.9556019279336976 0.1015576112312369 )
( 14.438565796048689 2.0646047995914194 0.090547736814532 )
( 14.179821117228364 2.192639959853925 0.0799359069433529 )
( 13.914275733918496 2.335230184297317 0.0693979526402502 )
( 13.643537070113393 2.4905277166067794 0.060729294039958 )
( 13.372112588163247 2.64838609952488 0.0540329638996921 )
( 13.114571746558802 2.789269164573554 0.0483291221952631 )
( 12.86711886146181 2.916108073276481 0.0448339356001774 )
( 12.61988313850214 3.019472764104128 0.0419176118677649 )
( 12.379544552167694 3.1096740618732994 0.0396129901255237 )
( 12.144859902631955 3.212539034478306 0.0382439865696405 )
( 11.91178313413318 3.3429877410460134 0.0378721791001325 )
( 11.672003319631296 3.5025557920700257 0.0397940000504777 )
( 15.908081031818806 1.3404011625048986 0.1473836078372987 )
( 15.708701174891484 1.4165487477009613 0.1430600131376641 )
( 15.469860537219304 1.5306743288198963 0.1366691414176396 )
( 15.24139198274971 1.6158322460420904 0.1261581896131907 )
( 15.006085323132348 1.6971905023306304 0.114577210607734 )
( 14.758134159014164 1.782400175369124 0.1018588041451454 )
( 14.50512398957834 1.8762415811077595 0.0893463287444944 )
( 14.235709264698428 1.9788144217407997 0.0773694972035815 )
( 13.957843980144808 2.0987666480554195 0.0655249356391883 )
( 13.676143768965575 2.241874881933674 0.0552088949184119 )
( 13.383489442685462 2.4000974090542764 0.0472718379288958 )
( 13.093322592341371 2.551877160631883 0.041350432320035 )
( 12.809574134618146 2.6896624835697738 0.0368833597709724 )
( 12.532035068729911 2.813154939202808 0.0340436173147092 )
( 12.269931716203098 2.90896436165238 0.0313684551445783 )
( 12.018878731955771 3.0000216028319238 0.0299425863430319 )
( 11.764596995128562 3.108552378937368 0.030404612893515 )
( 11.504483869857108 3.245312648725611 0.0325588750946468 )
( 11.23170306933599 3.420089472273951 0.0383687815125187 )
( 15.809034333187412 1.283806573889971 0.1393698425045403 )
( 15.602450250109538 1.3568318615935897 0.1354450974616628 )
( 15.35131708342927 1.4648293867191566 0.1288882884484403 )
( 15.10947220500791 1.5456666454038226 0.1171889074311497 )
( 14.860399913871262 1.6224316966360823 0.1044072199132703 )
( 14.603475949906851 1.699529605137892 0.0914082158265207 )
( 14.336759006851304 1.7864769384333752 0.0777173708050885 )
( 14.058106145326066 1.88553977676743 0.0644970992703204 )
( 13.761958757968252 1.9994767682320167 0.0524630153313954 )
( 13.45753032554688 2.139910920444612 0.0426415640401916 )
( 13.143047643664165 2.2983314334149485 0.0351912628486352 )
( 12.826747278531368 2.452707701793817 0.0301029522299338 )
( 12.520830767001012 2.590383313179705 0.0273676980181415 )
( 12.228176147883357 2.7028433539148957 0.0251068328351868 )
( 11.950957117332791 2.792812767460043 0.0233690944284069 )
( 11.6770548254157 2.890038494267252 0.02388376688808 )
( 11.39696684874296 3.010389450997885 0.0266890782685799 )
( 11.104272699079422 3.1490424951690037 0.0318470789180738 )
( 10.78855066028274 3.3301570947944743 0.0400095239811614 )
( 15.716697494547253 1.2276896231380268 0.1319439373751241 )
( 15.499359700999712 1.2977803797639589 0.1277383356691704 )
( 15.228240394555856 1.399604703086654 0.1196730906569945 )
( 14.977299545393382 1.469242387963412 0.1074197324320253 )
( 14.721153273274275 1.5383262261311192 0.0935562280664151 )
( 14.457773327800084 1.6106954902878636 0.0791523027216668 )
( 14.178799454537677 1.6906540712253284 0.0650853448114837 )
( 13.884595865836229 1.7875861023608592 0.0514608579285902 )
( 13.576464874554116 1.897938838014096 0.0399112025379849 )
( 13.2531133835214 2.0311256492595966 0.0308223043517335 )
( 12.913379206451417 2.1879809534456083 0.0242562841398505 )
( 12.570950582328656 2.340378989485116 0.0208467798306747 )
( 12.242417466255514 2.477834515922114 0.0195553972484922 )
( 11.939997226459116 2.5854986693108835 0.0183193912250854 )
( 11.648587362112591 2.6738696029982707 0.0187978446177419 )
( 11.34958257524977 2.7742705233903693 0.0213391531079041 )
( 11.03545969563617 2.89931839295344 0.0260639359701177 )
( 10.70131900094568 3.050203591387929 0.0334034576123732 )
( 10.351277361099951 3.251065705626593 0.0423734221322061 )
( 15.629915991015334 1.1730241593793316 0.1249070296269796 )
( 15.40326038854099 1.2382418949808394 0.1198748478236947 )
( 15.11917785429423 1.3319852849193714 0.1102849494377671 )
( 14.858754602988189 1.3888883693353715 0.0973482551985398 )
( 14.59665697117871 1.4471257480861743 0.0825392453686805 )
( 14.324696037487756 1.521262001909238 0.0669508155893218 )
( 14.035246170788016 1.5933419470276022 0.0525686309539777 )
( 13.723072593755782 1.679173985652659 0.0395789830415954 )
( 13.397466884065574 1.7909620354874476 0.028860942257609 )
( 13.056653882276532 1.918900694443134 0.0203316137851919 )
( 12.688496841455809 2.076195209893624 0.0152699496228409 )
( 12.319559421572803 2.2294799105044105 0.0140725882735017 )
( 11.981642169049882 2.357363780790932 0.0138001995429919 )
( 11.671416717746062 2.4608314032159813 0.014334407102686 )
( 11.361639439046698 2.5525636770749696 0.0169050101638626 )
( 11.034777394260706 2.655747561752665 0.0210503715856278 )
( 10.681560897674045 2.7828385340786994 0.0286907584815719 )
( 10.305034845985473 2.949980420877365 0.0361518811050889 )
( 9.940716656087552 3.190394659727737 0.0424380406529474 )
( 15.549666295676897 1.1182576565229156 0.1180238632545097 )
( 15.311303663239077 1.174707899806973 0.1114130008658974 )
( 15.019536478400934 1.2621235138832363 0.1012848284633832 )
( 14.757294005253572 1.312207679077377 0.0880142273897832 )
( 14.48700557360568 1.3627082592554938 0.0728751245316899 )
( 14.19995535111731 1.4298034786124727 0.0566727659442961 )
( 13.898249182072954 1.4919958302710783 0.0415369298140364 )
( 13.580050668174303 1.5738357915614063 0.0291959497936431 )
( 13.236036921597846 1.6848797979927934 0.0194911616948377 )
( 12.871310354069578 1.8034241933148385 0.0116166304232281 )
( 12.491733646112852 1.9537191077052136 0.0083494019241582 )
( 12.102998406976676 2.1170704364319257 0.0091393342116189 )
( 11.751337986049691 2.240446213763889 0.0103015887208042 )
( 11.42333542563054 2.3345154746971395 0.0125114068182629 )
( 11.08404578885647 2.4288374770842407 0.0161327647920989 )
( 10.7187902764976 2.5302951612195645 0.0214164522058158 )
( 10.329602404542504 2.6658822525160737 0.0288367133535316 )
( 9.934075998381736 2.856093125978848 0.0340180625836302 )
( 9.573630791015256 3.1447418211382265 0.0387722455259679 )
( 15.471861081890488 1.061763258111958 0.1111936198481895 )
( 15.226063291342708 1.1099183817883764 0.1034253255568238 )
( 14.927387738804583 1.187765119529619 0.0923451442884538 )
( 14.664718449405663 1.231488538203778 0.0788675538004218 )
( 14.38837715787034 1.2804998811280457 0.0636446081014705 )
( 14.08807284911798 1.339617748278023 0.0467744778224919 )
( 13.777892723639148 1.3890290710062316 0.0314031473004409 )
( 13.447653539576644 1.4697887230369835 0.0198244158735994 )
( 13.084289979460232 1.5799031268020167 0.0112419030047661 )
( 12.701418119560708 1.697482902890144 0.0055588914100756 )
( 12.302959750157507 1.8354301735505665 0.0038600862026809 )
( 11.90062127562611 1.9826922731145564 0.0054289123799347 )
( 11.534003216585768 2.106792524145215 0.0081357963811458 )
( 11.178352925756284 2.2047699375663563 0.011579744989595 )
( 10.808299013869714 2.290412358159841 0.0157051011516921 )
( 10.412760687512788 2.3925270682635045 0.0206301094812545 )
( 9.995314873441496 2.5389602600619643 0.025822307571041 )
( 9.597627940759304 2.767898122142449 0.0291131113776546 )
( 9.220460779792644 3.122330122501233 0.0340161210775782 )
( 15.401059754651657 1.0032643108757844 0.1044605335174149 )
( 15.150490253215924 1.0429202342586985 0.0958215869696299 )
( 14.842346413213388 1.1072335840362422 0.0831836483024861 )
( 14.57869090704859 1.1480987369023226 0.0700125101265334 )
( 14.296010618596693 1.1912804191043322 0.0545034248989957 )
( 13.982577376078558 1.2445212225592894 0.0371842426866183 )
( 13.672049494707482 1.2934993941056323 0.0227484156444429 )
( 13.3290609162133 1.3623347487474764 0.0119471481846536 )
( 12.94405500674479 1.4666799522127472 0.0039894559508185 )
( 12.540357447532102 1.5869742381587495 0.0004201074208397 )
( 12.116048182187432 1.7210695742304023 0.0004001724682233 )
( 11.708723193820813 1.853284305563335 0.002239391736926 )
( 11.3220279941283 1.9663258706683904 0.0056677109841016 )
( 10.934967332250446 2.064252937592287 0.0107897749639944 )
( 10.544193230126824 2.1516408877837097 0.0161120304146984 )
( 10.126348786142827 2.262639110094214 0.0204692548900041 )
( 9.688883952321293 2.426184623503098 0.0238727019967716 )
( 9.278411081549566 2.6908986584051258 0.0264036368893063 )
( 8.8036595963819 3.069518012545092 0.0284622252375656 )
( 15.340651228704589 0.9444542338840144 0.0983573056669982 )
( 15.080116250098598 0.9714342930833954 0.0879345256827377 )
( 14.764926796442154 1.0251195026938411 0.0746001691959148 )
( 14.497517076328316 1.0621559385711936 0.0614022198918386 )
( 14.20912963603955 1.1013297575938032 0.0457780324021349 )
( 13.8864605033045 1.1531084896261463 0.0289769747485272 )
( 13.56453873196575 1.198316770839425 0.0155685972776746 )
( 13.216209581659026 1.256661860329457 0.0054125808071429 )
( 12.82152349202646 1.3502621344846806 -0.0014214130881565 )
( 12.396399281039182 1.4610188495066327 -0.003823760595663 )
( 11.951578444271664 1.5969125066357093 -0.0031928954677179 )
( 11.530082073101507 1.730134867488448 -0.0004450508326478 )
( 11.118730386441744 1.8316453961171697 0.0038293443506574 )
( 10.709534497226672 1.9191614810289863 0.0090855451779541 )
( 10.28788846570017 2.018704832112713 0.0160854942787114 )
( 9.849293171085924 2.137245779678114 0.0214117336467042 )
( 9.404091021547282 2.319128679946848 0.0222895701161328 )
( 8.925206811675876 2.61433309348439 0.02437777164423 )
( 8.285010775679794 2.9536515970940806 0.0235325570970637 )
( 15.283363456174746 0.8808514994370501 0.0914876252754406 )
( 15.02041238544611 0.9030802225797736 0.0804799455482134 )
( 14.703696874374304 0.9467382346858596 0.0671219017285356 )
( 14.426506644158042 0.9709793344274142 0.0529205770640755 )
( 14.13129772307764 1.0086277106806123 0.0375187749622635 )
( 13.803907786120408 1.0618619903276956 0.0219796798585338 )
( 13.468889163999288 1.0983245173517984 0.0091408502091378 )
( 13.11522021528994 1.1485656599727698 -0.0003549261747007 )
( 12.702691837353788 1.2365511882082396 -0.0055218706896543 )
( 12.260742941089212 1.341299508590862 -0.0067105609084383 )
( 11.800381760746172 1.4690739197001104 -0.0061338180498873 )
( 11.34977682590786 1.5974504244500756 -0.002313662775663 )
( 10.925174613964757 1.7021342536943902 0.0032354185921121 )
( 10.508556454854013 1.7852822531905077 0.0074296367288945 )
( 10.058073934385622 1.88503145951879 0.0132268922504564 )
( 9.588567849548346 2.009896914575384 0.0172429505687738 )
( 9.126692526507382 2.206871940882187 0.0191022845564002 )
( 8.549625411494754 2.513870178357749 0.0204324531688437 )
( 7.669390958363914 2.7666137265485418 0.017043718642454 )
( 15.23167100289104 0.8153728098569899 0.0844671713616381 )
( 14.96777493448992 0.8350841997815145 0.0736053359978904 )
( 14.647908022825169 0.8725260258630457 0.0601373048900778 )
( 14.366407624966962 0.8901989248767825 0.0457387747682358 )
( 14.0606689091258 0.9205926317324375 0.0304024271197023 )
( 13.720780888989598 0.9585897513851772 0.0157099923885932 )
( 13.377464163904564 0.990948066033358 0.003240379478489 )
( 13.01898401403219 1.0367311907545549 -0.0057258997884362 )
( 12.581377065502275 1.1184513971425518 -0.0094985838334817 )
( 12.121953729698063 1.2251227797619813 -0.0095522900866531 )
( 11.659173166000746 1.34398936392042 -0.0081474537311233 )
( 11.196223782548074 1.4696868102322704 -0.003156105081055 )
( 10.755155267612908 1.5788167567080018 0.0028391641035333 )
( 10.310669488541375 1.6536012082685088 0.0073060539154507 )
( 9.846353882006222 1.7440539964685575 0.0116834138253806 )
( 9.356710439632172 1.8745020435985669 0.0134564660416134 )
( 8.82814422667375 2.0904954232157547 0.0144809884474598 )
( 8.180147764285673 2.400223607394832 0.0126990285244313 )
( 6.915509676800763 2.482906716815892 0.0098415903893277 )
( 15.185229187023143 0.7551756240349224 0.0789441054411826 )
( 14.9154412176844 0.7664952407943249 0.067471903915824 )
( 14.593192973315 0.797258299847145 0.0535544433088827 )
( 14.311502057285225 0.8136266280930615 0.0393525965103391 )
( 13.99648109954476 0.8344013572533407 0.0238808877331263 )
( 13.651399740285614 0.8586293781374708 0.0101208678617318 )
( 13.299894408637048 0.8926066347989289 -0.0015509422719934 )
( 12.923993276575992 0.9406774767081658 -0.0100769246797771 )
( 12.468107133177128 1.008981068567975 -0.0130976135774909 )
( 11.98723720306698 1.1097159434606876 -0.0121276543598575 )
( 11.519019404764844 1.2193822296386438 -0.0090306106345506 )
( 11.058419023390002 1.3290251432673112 -0.0042004573297851 )
( 10.601103129670948 1.4302590060291098 0.0010791519803456 )
( 10.126333577153332 1.5071408985994532 0.0070790360268515 )
( 9.63784630920226 1.593108773823462 0.0132921294256809 )
( 9.127194414569434 1.727236939751981 0.0146401705282352 )
( 8.516811027090489 1.95420093686002 0.0123198867303854 )
( 7.682059465367004 2.2079659470518096 0.0098179887943298 )
( 6.189277759400614 2.161891207231754 0.0076854749384897 )
( 15.145189810735072 0.6933069561029362 0.0735823868350139 )
( 14.870137434637131 0.6998925305779357 0.0617774573559132 )
( 14.541127407463184 0.7229277745058912 0.047196349955253 )
( 14.25703246943552 0.7318577794415437 0.0323998292689537 )
( 13.937594286772224 0.749806778348914 0.0182823983688107 )
( 13.593746371677884 0.7756961943287539 0.0052420222626809 )
( 13.239390486666872 0.8070518501122336 -0.006398013921747 )
( 12.841984637206892 0.8466437079898212 -0.0138717062651549 )
( 12.3751576771124 0.9086178648130956 -0.0159290597224312 )
( 11.886974322813254 1.001908649799223 -0.0139638451407624 )
( 11.401767192464712 1.1022916972746348 -0.0100808870734456 )
( 10.9182120644834 1.1921140609257723 -0.0052242803685639 )
( 10.441535889816024 1.275334702430206 -0.0003995501132164 )
( 9.949747636130397 1.3501185192909757 0.0046756982830233 )
( 9.442297952381296 1.4400742011546406 0.0105185721287515 )
( 8.890934432399193 1.5926573340363694 0.01151680258521 )
( 8.219193107222964 1.8112740252730453 0.0105413876274624 )
( 7.149988625867617 1.9536932995718288 0.0095592475016835 )
( 5.567956265623291 1.854254697369308 0.0049532908069171 )
( 15.111195521378628 0.629631566016226 0.0682917902803175 )
( 14.836334524914925 0.6339847087665675 0.056783472731673 )
( 14.498400625990548 0.6516144441825491 0.0413587653604468 )
( 14.207034133161953 0.6519741118859008 0.0264173693413759 )
( 13.88187163826797 0.6628477049923429 0.0131212298175864 )
( 13.534602809273744 0.6869409415426128 7.815533383169284e-09 )
( 13.17613895713797 0.705052740013284 -0.0112795535963299 )
( 12.768066173360552 0.7391183871874636 -0.0171073756218209 )
( 12.300982260955898 0.8093322884229731 -0.017538065984783 )
( 11.806692367993104 0.8950390562067987 -0.0153311808051429 )
( 11.2987206425719 0.9889871868988928 -0.0120125508897954 )
( 10.79199637669194 1.0614244843619796 -0.0063991919919683 )
( 10.296465313634847 1.1279363004548917 -0.0017910702094468 )
( 9.776886328859186 1.1943831765138626 0.0022173925914288 )
( 9.252534434037296 1.283615163235606 0.0051737303442973 )
( 8.641840670992648 1.4446272624684364 0.0051386181699495 )
( 7.8956086017969 1.6392532986989263 0.0057111569458838 )
( 6.7071055962369 1.7014351451985934 0.0064544391381114 )
( 4.998397202925527 1.5457396631973337 0.0033037034743952 )
( 15.082264248983734 0.5738007213951734 0.0637620663541913 )
( 14.805637266056838 0.5707773676561329 0.0520353533120546 )
( 14.46186020060077 0.5793095962500878 0.0360831420156032 )
( 14.164403294919389 0.5754849857393337 0.0215591001329913 )
( 13.834344602731038 0.5770265120403181 0.0084381127503374 )
( 13.485550449666263 0.5909527170583685 -0.0044725372401632 )
( 13.114944171042117 0.6003602408133946 -0.0152402660252553 )
( 12.698467430633718 0.6388300645597148 -0.0195130659873856 )