/*--------------------------------*- C++ -*----------------------------------*\
| =========                 |                                                 |
| \\      /  F ield         | OpenFOAM: The Open Source CFD Toolbox           |
|  \\    /   O peration     | Version:  2112                                  |
|   \\  /    A nd           | Website:  www.openfoam.com                      |
|    \\/     M anipulation  |                                                 |
\*---------------------------------------------------------------------------*/
FoamFile
{
    version     2.0;
    format      ascii;
    arch        "LSB;label=32;scalar=64";
    class       volScalarField;
    location    "0.0067";
    object      k_LES;
}
// * * * * * * * * * * * * * * * * * * * * * * * * * * * * * * * * * * * * * // 
 
dimensions      [0 2 -2 0 0 0 0];
 
internalField   nonuniform List<scalar> 
13597
(
0.2459677750424371
0.2483268070590771
0.2514879364141951
0.2559257801955752
0.2596345292531249
0.2618596384316886
0.2627262956833431
0.2631545230992214
0.2626940611566005
0.2610760843029885
0.2599294221300527
0.2583657661442586
0.2561009720079383
0.2539462306414147
0.2516732408859014
0.2501152270729077
0.2491022083267964
0.2479346922880738
0.2471592315165878
0.267194832065484
0.2714641224493352
0.2745671623846215
0.2799068723348593
0.2832201965427401
0.2846765876889508
0.2850555625355876
0.2851688978598803
0.2852770340043585
0.2839231577589876
0.282717015335315
0.2808320797608855
0.2782866593243021
0.2759826480531112
0.2743031229850948
0.2723527086776636
0.2702776524541576
0.2692722293258822
0.2688429835558396
0.2843521008707331
0.2881843056467383
0.2890628429866447
0.2914741872903281
0.2936595331677366
0.2950169384370563
0.2949654502914297
0.2947621822894707
0.2948006983721175
0.2941469977242378
0.2925213339578374
0.2911606041864343
0.2900460011645526
0.2883557968265281
0.2873791681055342
0.2862266799618763
0.284919482368514
0.2841895621459348
0.2829144131468414
0.2938183348411414
0.2955605231179356
0.2941035237946756
0.2955984431238256
0.2985601117446693
0.3003878436685109
0.3013756272925365
0.3022145902027926
0.3022844468607412
0.3014737396778196
0.2987656934844267
0.2967482863055457
0.2951751873452682
0.2933580744106089
0.2919304062181904
0.2908979411486176
0.2901226705524247
0.2896071964318769
0.2890034367701557
0.2971332875178559
0.2959700711205181
0.295194845138582
0.2985846245336933
0.3018715296803417
0.3041896019536473
0.3046620276953313
0.303978759152589
0.3025895010833483
0.2999355049961975
0.2973150673091411
0.2956930916054797
0.2944018205187088
0.2941602848654178
0.2946551632866629
0.2955298173616027
0.296359944504966
0.2977423690228301
0.2994954310525608
0.2960192529242871
0.2934739810863141
0.2946348501392193
0.2996467494691409
0.3021519214069288
0.3037766081696559
0.3025905090552548
0.3002883498175966
0.2981493487195652
0.2953692357431128
0.294038028329497
0.2936526444119906
0.2945268581239517
0.2970124740795388
0.3002409986952737
0.303562114011545
0.3069157060529039
0.310732283192595
0.3150283198280985
0.2922276387460673
0.2907829003502457
0.2936376563750756
0.2981900779381602
0.2993838654976572
0.29911192638642
0.2968558070188827
0.2939255080593647
0.2921929126137881
0.29148145255275
0.2920315900606448
0.2946446883175847
0.299019655164994
0.3044815257059961
0.3106395837956942
0.3166089368589377
0.3225549096407856
0.3289567801889255
0.3357949669223363
0.2890241473178911
0.2889547570716599
0.2923506241571422
0.2951109215413274
0.2941501240226956
0.2919892929494791
0.2892368665901493
0.2873321745808992
0.2874196386029128
0.289601917433201
0.2936758121033517
0.300565904237692
0.3089643429346826
0.317527900811821
0.3259441925150444
0.3343483071239963
0.3427885873208318
0.3515901706656686
0.3604572189940311
0.2863546107676328
0.2867476582706627
0.2893194032650828
0.2898799506999615
0.2871492369961488
0.2842906242865445
0.2818881803007508
0.2824238688833864
0.2855239436604965
0.2913529605268559
0.3000057039766774
0.3108567575698061
0.3228289858017941
0.3343840247734416
0.3449103773439869
0.355617619688558
0.3662137517597355
0.3769919051959536
0.3879550281801251
0.2859637346681465
0.2854041054974324
0.2845944442890177
0.282778115374021
0.2798854589800423
0.2775684644853753
0.2766135427457539
0.2799866674099344
0.2870117144417174
0.2970287206512659
0.3100554135372462
0.3244564284592503
0.3390088039577101
0.3529799025479989
0.3659886671169111
0.3789155442788495
0.391805016840306
0.4047070551616019
0.41785851153297
0.286199261077174
0.2827776452315779
0.2789493960732866
0.2754142565745328
0.2724277314411397
0.2717299927837159
0.2744442904842933
0.2814025850175365
0.2922095027710387
0.3060814151019463
0.3223429005472605
0.3400362237969689
0.3568209230983426
0.3726861842740901
0.3884650455686312
0.4038967044793564
0.4194468112012517
0.4349017096507187
0.4508580667337444
0.2845222721381492
0.2780195386785408
0.2727066312082752
0.2684669163884293
0.2664732089732731
0.2684666924199858
0.2752467841329954
0.2862769775787216
0.3003031166376722
0.3171914170028323
0.3362384952192823
0.3565907144529167
0.3758491735173026
0.3942836714997598
0.4128829763487039
0.4309250357208647
0.4490870675070207
0.4679436657740449
0.4877589286616418
0.2825968116029196
0.2732174259049508
0.2663450917318256
0.2628755149399646
0.2633185296378632
0.2684399541083799
0.2785242108013394
0.2930845549525528
0.3104415287195263
0.3296567333510899
0.351490823872282
0.3740661264972862
0.3958766026528924
0.4176822987363298
0.4387792282104221
0.4594321186697775
0.4814698588111124
0.5048052786383228
0.5285647297008536
0.2805994524063036
0.2684073176420221
0.2603748071671565
0.2586097467246886
0.2619914103179047
0.2706045445019141
0.2837162104874721
0.3004038845987334
0.3205419982182952
0.3427296838751187
0.3668366726493904
0.3923252973621144
0.4171621071690825
0.4414978020826744
0.4656688257023715
0.4905867123841781
0.5175986179039473
0.5455389135397589
0.5743267371377389
0.2768797510555551
0.2625491211553253
0.2556904384702537
0.2559143485782871
0.2624752476236553
0.2741265011256436
0.2898917512025644
0.3092663889555778
0.3315030848850864
0.356246350828217
0.3830727999734325
0.4115384781810193
0.4398637797843895
0.4667735866772649
0.4947318546975042
0.5249869357679952
0.557092600625693
0.590886852993257
0.6313162630498834
0.2721519648876782
0.2570325588060954
0.2521397924137757
0.2549323351354568
0.2643687072468333
0.2784419721524202
0.2968224281273757
0.3187889216175585
0.3430551574789242
0.3700393333616439
0.4003738324557251
0.4322440573766913
0.4632199612638339
0.4934055465737296
0.5257680733758029
0.5610642209777891
0.5996355689123396
0.645667890403342
0.7077788521028209
0.2667035684260848
0.2523384327352981
0.2499837800321121
0.2553778572071457
0.2673732822379206
0.2840607862962748
0.3045876851305629
0.3279421428772602
0.3541858110772471
0.3838892292701777
0.4160920281730507
0.4513278881475207
0.4861350141597931
0.520748580640373
0.5584146439249645
0.5999528191903374
0.64910292954897
0.7156008133279332
0.7997355299940013
0.261173340068988
0.2485431996770953
0.248965744012773
0.257036500880035
0.2710564714754093
0.2898903514319657
0.3117237020911342
0.3367897457087029
0.3657609621218607
0.397521695261382
0.432183930111665
0.4707580473124921
0.5097656411371938
0.5495589696588828
0.5930380086041853
0.642740495136367
0.7096130695653158
0.8001922720063417
0.883421606005762
0.2570725527946432
0.2464400424432519
0.2492149691463223
0.259646474846341
0.2754136313318049
0.2960209588818896
0.3184785526306069
0.3451093765558553
0.3767585661212173
0.4109559394699531
0.4496596657770748
0.491270471315074
0.53434011225626
0.5800388177510114
0.6299111064541637
0.6929269067019209
0.783308174329433
0.8951102865173285
0.949973678160939
0.2538828193574015
0.2450755419110364
0.2506735790962434
0.2629970943257241
0.2802148524857233
0.3023213221713604
0.3263029987963437
0.3536983296356904
0.3866369578810193
0.4239921800553655
0.4666046854578328
0.5121494319253332
0.5597311146597249
0.610580339792015
0.6720312663271493
0.7528552610404263
0.8676453684050288
0.989386543600804
0.9960229429730576
0.2510145401363061
0.2441224398193054
0.252016760221273
0.2660059999659253
0.2844612825690686
0.3076865314642584
0.3334699643566189
0.3616737806336175
0.3964012579976627
0.4368661777837288
0.4834238983757899
0.5343811595086096
0.585839162412135
0.6412349070785441
0.7164731446820444
0.8216885784175317
0.9598405269449416
1.074115010413544
0.9935002689559748
0.2487100619672493
0.2440045378249653
0.2537663470434184
0.2689214205764885
0.2888235723518611
0.3136895161508495
0.3402444769581191
0.3690790732551494
0.4067837126123582
0.4504708207390653
0.4995434567209371
0.5534678347573259
0.609527003983833
0.67508489849605
0.7640135291679839
0.8958602032534407
1.051678980489146
1.1418611471656754
0.9233902884849168
0.2467760541221332
0.2444578795340684
0.2558958589651895
0.2717114151194555
0.2927765990950433
0.318699819883376
0.3464317539944627
0.3770545742689705
0.4174003749409065
0.4648308751438815
0.5163195080047238
0.5720696111714658
0.6330263388966713
0.7098494976420348
0.82008232267959
0.976713934224724
1.1392791021209396
1.160143312822003
0.8438473625720785
0.2453306536233128
0.244919038964868
0.2582237175064022
0.274569276403231
0.2962699953339866
0.3224903389322766
0.3512492784346573
0.3843247942023669
0.4264667064355737
0.4762493992890819
0.531468430926297
0.5928028246120453
0.660281382858524
0.7479865947332072
0.8804941294892534
1.0590352048919816
1.2189622751576514
1.1420507211271185
0.7700154935199024
0.244388287130637
0.2453478057717696
0.2602089566434167
0.2775858319907294
0.2998340436038417
0.326629614436933
0.3560480037343896
0.3905851632514302
0.4340371565898946
0.4858562811489091
0.545685040324657
0.6127135683638457
0.6875634762353526
0.7932492081129916
0.9441413348173192
1.1355879439644951
1.2760039879445333
1.116108145025115
0.68801732927984
0.243442363382583
0.2457069499740617
0.2616583036019916
0.280240135499719
0.3034740575567898
0.3305665654949423
0.3608804851925813
0.3966514203407738
0.4417194658209496
0.4969303407068237
0.5601470117019789
0.631143233313943
0.714590607014437
0.8367882997099222
1.006062932641209
1.2080692147599097
1.2915327079915828
1.0602247827305622
0.6264655041152466
0.2419720175070797
0.2456388423738366
0.2631772095592292
0.2825653307168685
0.3064244057125821
0.3341380555487922
0.3655942281087158
0.4031386890819626
0.4501204791336992
0.5078576819205914
0.5736808684513798
0.6482512674358882
0.7409210150785804
0.8754326783916403
1.064892197401244
1.2717610260387802
1.295860817726714
0.9980984233745676
0.5749851014353002
0.2405004637363043
0.245546967339426
0.2645431564584291
0.2850204511301299
0.3091433075205601
0.3373976146678506
0.3698164882630639
0.4087897300718004
0.4576704233834113
0.518667989184962
0.5878865678931858
0.6645204051358056
0.7655737875085858
0.9147260367484212
1.1282877371483508
1.3329672845034224
1.315672410277399
0.9566559138619184
0.5315767581436835
0.2388496684829049
0.2452613213913767
0.2653659546309073
0.2873225766332032
0.3115006022369117
0.3398876002619854
0.3731814444827424
0.4132499475921587
0.4643613179328689
0.5282612385962805
0.5998310546959079
0.681877190329729
0.7966924358458113
0.9567435585778744
1.1845992685439362
1.378477116389647
1.315482741049836
0.9191099011259692
0.5041776791784898
0.2371552563241683
0.2447212093954995
0.2662868832030495
0.2893903291498035
0.3135115086745719
0.3423275911387278
0.3761746083191944
0.4172109609124049
0.4708766497511277
0.5357321618155844
0.6087245791186929
0.699546784495956
0.8243218789587493
0.9962679773326354
1.2323985285841357
1.3745378988810375
1.2655011410653452
0.8824996686696399
0.4883535611528283
0.2359042426230827
0.2444268975768851
0.2672107346509085
0.2910844140031758
0.3157844481117912
0.3450161783422898
0.3792041633888356
0.4217014419266754
0.4771519955767717
0.5431768914486627
0.6186744127278442
0.7162314881562307
0.8444128783863323
1.0312221598481723
1.275554169629365
1.3639216275297823
1.2130983463063298
0.8497473648906329
0.4772037791501226
0.234655365164054
0.2441387316693264
0.2679188192122068
0.2920220890699459
0.3174759520879268
0.347277314321823
0.3822912977658429
0.4267853753329057
0.4832233531783789
0.55061215278449
0.6289067412502184
0.7309285886014483
0.8653666893341295
1.0726208299874558
1.3157789518027274
1.377532042258003
1.198300469427679
0.8216716877133466
0.4631325032564009
0.2331157054107085
0.2438562770804812
0.2687437157802201
0.292986061927342
0.3186860197493047
0.3487069290745102
0.3847572060035072
0.4309586212815047
0.4886908864377429
0.5580634475662568
0.6390240758870436
0.7450996464483473
0.8847026713505375
1.1074574845869274
1.3533429264655992
1.3987359866257596
1.197900146106056
0.8012570919843491
0.4468862942458556
0.2314603875740005
0.2435295565003976
0.2691618743803839
0.2938061446475539
0.3202479880374615
0.3503795499782815
0.3864297303629407
0.433938275177022
0.4934153359664718
0.5658352859090988
0.6504131353314664
0.7591336911052948
0.9021612651311596
1.133386349431432
1.3862448904172693
1.4201868801158766
1.2004481499316186
0.7889433655340543
0.4369550242993691
0.2302380068075087
0.2432765846454279
0.2694609313158316
0.294407884093825
0.3218501875539804
0.3522327560388579
0.388022506288309
0.4362365673029922
0.4973302362052044
0.5720497068208991
0.6594081997204078
0.7704413110787222
0.9199981715512304
1.1593666411636594
1.4105870199384902
1.4313667464627429
1.1977062843154105
0.7792619819113233
0.4309913510003905
0.2291441862820449
0.2429978886012869
0.2701306720331703
0.2954273303715347
0.3232037830758508
0.3537350754652302
0.3894912668282538
0.4382656865837112
0.5009479311858124
0.5764426634535591
0.665867366267788
0.7801455342838357
0.9358534313696272
1.1777769779282747
1.428928766884128
1.4421214915001352
1.1920728517345074
0.7679741358434039
0.4236302887219392
0.22776323301325
0.2426474868848906
0.2705631916639779
0.2962574370581611
0.3246683470187563
0.3556957682543423
0.3915617651820418
0.4404334063875483
0.5043674107991243
0.580735877879713
0.6720340764337429
0.7898726875235083
0.9494604580600732
1.193964740839937
1.4438634594732018
1.4466220898838256
1.191538401689846
0.7649128962699947
0.4173400862143713
0.2266455746335301
0.2424894472648732
0.2705182929450513
0.296348173868934
0.325167020847901
0.3565792060672421
0.3934321838273121
0.4428534319570661
0.5081020956127312
0.5845614532008473
0.6774405909807379
0.7987948346768293
0.9653859440777928
1.2115799338743192
1.4495295721713923
1.4450413896365475
1.185809585367769
0.7627254377729187
0.4141720061582511
0.2255215380835883
0.2421681169611809
0.2704334580501047
0.2963858831915623
0.3254292163334646
0.3566116697671848
0.3940149318984208
0.4443031743719224
0.5110962205294536
0.5875451058207921
0.6815413746894273
0.8059409020554207
0.9824405531676106
1.2324943658600491
1.451276544790923
1.438770561781736
1.173500643991803
0.754846689856354
0.4132930799256407
0.2240438554351764
0.2414578511110458
0.2704739639001953
0.2968402730495191
0.3258486090804854
0.3569051592995384
0.3945702573695582
0.4447423910455599
0.5120894183524198
0.5891882955302754
0.6842382886346702
0.8109137055298696
0.9925834380774516
1.2482944111176115
1.454291833390354
1.4286500716534514
1.165769585505835
0.7508455470400882
0.4133460166721159
0.2225669270770688
0.2405810827379614
0.2708155991202537
0.2974895705776386
0.3260204083859583
0.3572783172299945
0.3952157984910686
0.4456172991128146
0.5137664354310111
0.5921381433232036
0.6873617099437178
0.8163957513065356
1.00044860951405
1.2561359121999616
1.4524299090034054
1.4159668751042394
1.1565218070185646
0.7463531732635597
0.4134855430543165
0.2214360748265595
0.2400469698826262
0.271197252884728
0.298108130819529
0.3262861155162048
0.3577874034778943
0.396085603578886
0.4469758638466749
0.5162763223510289
0.5968567512088527
0.69175994411399
0.82175455000677
1.0074474093653087
1.259416676435377
1.450689512937568
1.4102953854390792
1.1470718197870566
0.7381520951489883
0.4117567933356699
0.2205004123620043
0.2395222965369023
0.2710807249477911
0.2981714972524851
0.3265227659618627
0.3584113336150781
0.3970934871768675
0.4477159535210471
0.5166045811384329
0.599304977649757
0.6953813089565922
0.8244858621789145
1.008852075380818
1.2640545666574334
1.457152560893904
1.4094871928479231
1.138972076979683
0.7305821271253543
0.4073238231625213
0.2196945626301024
0.2389442180736938
0.2707618015188085
0.2977287073717031
0.3265895583406347
0.3590457371319889
0.3976301872654997
0.4482390562519165
0.5176661007453859
0.602067673981194
0.6987472470083501
0.8282968123344434
1.0120145281085084
1.2691459127253195
1.453815575542869
1.3978866959222265
1.1300895866462175
0.7255992640958749
0.40504404098039
0.1538007913336367
0.1522651147043013
0.149787780513361
0.1485997524840954
0.1494571990754665
0.1511032799150361
0.1541900924457726
0.1578427327248716
0.1623222370123831
0.1676641085482915
0.1735735589197929
0.1804295752639712
0.1869130001124114
0.193032074802672
0.199154701356548
0.2042760896219123
0.2090168937110598
0.2132990022967528
0.2164525487972596
0.1548733214706841
0.1548344100957434
0.1545401151790517
0.1577316790274206
0.1632869715059995
0.1697066114825386
0.1777015964381168
0.1857273069625873
0.1930160559682921
0.2007620764100966
0.2090435950437039
0.2172844054904551
0.2247619384245616
0.2308163872069559
0.2354794280612261
0.2386978445651696
0.2410462422078502
0.2427513965079057
0.2429723441970852
0.1633132654250051
0.166112309266556
0.1697919342346584
0.1777159096086141
0.1866929100606507
0.1961496560569188
0.2055745930035358
0.2147815645141174
0.2233558763287448
0.2315545949931305
0.2397123681130611
0.2465732825152432
0.2520912186000574
0.2561466240522553
0.2586958775326198
0.2601493456257524
0.260310455209905
0.2592259329818194
0.256998074632441
0.1746170825250895
0.1784267428982221
0.1837735569912271
0.1935363334289744
0.2027785623396396
0.212064859897349
0.2214145476302485
0.2303465838728533
0.2379815310868457
0.2444748220541256
0.2511000370550988
0.2560580036689637
0.2594119979730978
0.2617404613606272
0.2623958779106176
0.2623685864992844
0.2618896458364698
0.2609973341619307
0.2599332072581642
0.1823387823574742
0.1853575473214404
0.1910092014329223
0.2002855020867353
0.2088273297106612
0.2174409443288283
0.2267707230651051
0.2354818425354
0.242705506876119
0.2490691844684616
0.2550492961659651
0.2594973645131873
0.2623415333242234
0.2646424456742812
0.2658606983049673
0.2670318830251882
0.2683801537393792
0.2696257351618762
0.2711984297085514
0.1848171997974415
0.1868708228020832
0.1926269217196995
0.2016691659559076
0.2101094743450975
0.2192960319068251
0.2288922927323062
0.2378098986750719
0.2459671807924606
0.253404180391879
0.2595449416508792
0.2645090542361998
0.2688029311930134
0.2723623099735262
0.2754205195461637
0.2786570406894614
0.2816152084058113
0.2845569058013448
0.287978328124975
0.1850913960293577
0.1857990291642791
0.1910983097863485
0.2015873881783525
0.2114233876112673
0.2215669657793979
0.2323368324001924
0.2421907333220513
0.2516919374906773
0.2602260937866543
0.2673273436356212
0.2734749185798976
0.2789183599993713
0.2843088266011486
0.2892362520566797
0.293822384365893
0.2981781696690835
0.3027004557780023
0.3075425472522688
0.1831873466695314
0.1834249132301142
0.1905919079776568
0.2021525901701036
0.2130684453517259
0.224620839842844
0.2369249462796608
0.248342387568766
0.2592193283057134
0.2688681355856537
0.2774256089408198
0.2854532793213346
0.2919549852976233
0.2988167939239302
0.3054800402415658
0.3115839885561381
0.3177372802932888
0.3241925768334063
0.3310926272097875
0.1816549128750732
0.182372449320383
0.1910854082988475
0.2040798277788841
0.216494966206385
0.2295363867751397
0.2434215559301351
0.2567993413391078
0.2685926905882624
0.2794788341793596
0.2893523677375031
0.2985786209332414
0.3072847242127592
0.3157399580977789
0.3238098711139287
0.3317950415691271
0.340719074376811
0.3499348841733472
0.3592166983919693
0.18088560351404
0.1824893273465072
0.1929592506864884
0.2072792587594786
0.2215070070973531
0.2366989787482589
0.2516062305190872
0.2660615327354588
0.2784800827152264
0.2909736605729061
0.3026691857517965
0.3127117764616447
0.3232717142718307
0.3341236644869415
0.3447604831185106
0.355361894050594
0.3673643855879519
0.3797034617798977
0.3917707559158552
0.1804985460103021
0.1834375639001836
0.1957153229953232
0.2116077685943772
0.2275648761104404
0.2442288621063376
0.2600304147179486
0.2751381451858428
0.2887596993723962
0.302384488039528
0.3158889160736092
0.3283530433497371
0.3412644608729218
0.3548700926803195
0.3685602740972113
0.3826945359572489
0.3973749524008735
0.4126376883696985
0.4280527253599985
0.1807584174554813
0.1851883989571741
0.1992734998245951
0.2163704995723085
0.2338293276683324
0.2517673875292761
0.268689942305805
0.2847787575363585
0.3001085141620921
0.3146249115458839
0.3300477514008388
0.3456896539202934
0.3611917472297034
0.3779052939899333
0.3947788042288237
0.4123622506524834
0.4304748283274243
0.4490522249398401
0.4680363577125548
0.1810513968969046
0.1868250846662534
0.2036326948839109
0.2221446812403379
0.2407679023231457
0.2596265337285897
0.2770976911916643
0.2940299000973138
0.3114067784775304
0.3281494107042758
0.3454329095484292
0.3644223417194824
0.383050136678758
0.4025576405833018
0.4228644260770347
0.4439341361343581
0.4663779442634781
0.4896202198910795
0.5134128267955372
0.1819255036293006
0.1891147407009904
0.2079825344985704
0.2280102643026537
0.2478876470614195
0.2665993108883129
0.2848186749828171
0.3037713171914525
0.3234035519454191
0.3425635424130148
0.3624700589857377
0.3840407264957315
0.405885986034058
0.4282669567961895
0.4524531298249135
0.4787217827974173
0.505581065419917
0.533970999767654
0.5639639038483762
0.1827734224070011
0.1912739734931749
0.2118649580449703
0.2330136810934011
0.2538292123268766
0.2734510597880924
0.292808894221942
0.3133741096151363
0.3348742113450235
0.3565747973305368
0.3794108173620204
0.4034201124387791
0.4289818403176006
0.4558996972130929
0.4843530987709
0.5159137282841725
0.5487122307161716
0.583595098531688
0.6243803527356309
0.1833715031087537
0.1934312304055189
0.2165300917587094
0.238558535650414
0.2597396262161908
0.2801244085652971
0.3011663214694553
0.3230584651236375
0.3454198262123983
0.3700990291204729
0.3956533881234711
0.4232656971330775
0.4535840948513815
0.4854894605376778
0.5185224497915663
0.5541950107152446
0.5944852798168925
0.6410256158079813
0.6991474567217401
0.1842545844618156
0.1960553661518264
0.2214152850348221
0.2439413720982611
0.2659098273368471
0.2864642417981562
0.3087853802334876
0.3326034127342314
0.3570281151867754
0.3836453761734538
0.4120076400718294
0.4441304245968674
0.4784168764033311
0.5146611938914069
0.5536922829120114
0.595762103011789
0.6450336396060248
0.7084561712837678
0.7836274994093998
0.1851678981855334
0.1985183086714033
0.2258091910596729
0.2488495626022107
0.270913222863418
0.2929746650402182
0.316486259280492
0.3417291165382995
0.3690939410987878
0.3972910786164224
0.4288385643060325
0.4655715218981558
0.504133046987233
0.5457330584825316
0.5905497345593381
0.6413606195490059
0.7047491860588887
0.7907157709516597
0.871023918448676
0.1857912540360415
0.2009266127226099
0.2298709437152492
0.2530314335900535
0.2753284763847963
0.2986510460447517
0.3238636169181943
0.3511121640331489
0.3799364589830319
0.4102084241316286
0.4458222511165756
0.4861690446376004
0.5303057063198794
0.577737704976375
0.6283587136798823
0.6917250395966594
0.7751193305424016
0.8796138184664638
0.9398283332589256
0.1866222265186111
0.2031522731091112
0.2332694166263192
0.2571741673415906
0.2803524814761199
0.3043564881369282
0.3305314663478663
0.359498093316643
0.3902010531216334
0.4231261954960361
0.4632751055500432
0.5084340211033652
0.557898078647793
0.6109504948391778
0.669417932785913
0.7470525526980843
0.8555030980466483
0.965669037556988
0.9844382568790572
0.187120661190727
0.2055534899809306
0.2366393455241818
0.2614145211167869
0.2851813966014936
0.3100431879218104
0.3376935676467104
0.3673944011247979
0.3997086224220101
0.4359140966953963
0.4805294084430803
0.5320256309912151
0.5860264052233308
0.6455924216974812
0.716032770834959
0.8112510635766266
0.9403828476031304
1.0474539335674131
0.9910542719947196
0.1879747039528312
0.2078214681833661
0.240304964584918
0.2651325548757913
0.289237247201886
0.3147906981649031
0.3440523069447679
0.3752033104599448
0.4089843942995514
0.4485462844301297
0.4971494400498065
0.5535457362713683
0.6126089585001327
0.6794073744114644
0.7620065101546418
0.8821140524332836
1.034400430570175
1.1304020566782655
0.9291094309695622
0.1891114121457646
0.2094578682403246
0.2432719683418893
0.2687129783455853
0.2930480523053424
0.319428869996508
0.3495858022888554
0.3822264427458156
0.4190449533973402
0.4624062772949106
0.5150700492537252
0.5759722210023934
0.6413057416639953
0.7160759940303472
0.8163789528200949
0.9628170005807456
1.1266735639770096
1.1498455341343614
0.8462818390414037
0.1903377712721949
0.2117535646600091
0.2461199271259926
0.2719976535019784
0.2969893892555874
0.3242070967646613
0.3545572490757779
0.3880978504833823
0.427836111975466
0.4757644866985832
0.5325167850455004
0.5976385973996978
0.6697997350122645
0.7547926318876655
0.8765513224991418
1.047599533831739
1.2023804080907532
1.1226975580227134
0.778520877668081
0.1918414263625308
0.2144200417093199
0.2492532978308771
0.2749082395515801
0.3006121654061025
0.3283501930155178
0.3587708917728781
0.3936298841471599
0.4359000627043162
0.4883148748605823
0.5499372763814325
0.6193157222591325
0.6977419465036186
0.7980477781136229
0.9398100298070248
1.122285370258651
1.2539044212159518
1.1066316108935206
0.7089665120108598
0.193160288436671
0.2161657570353911
0.2517419377832899
0.2778149708253024
0.3037868381736258
0.3319714534419927
0.3635604635561767
0.3999520969413153
0.4445167288813804
0.5003418211463101
0.5661917723549376
0.6406097407306106
0.7237331297785076
0.8384189543774653
1.0010916700143897
1.1875569001545891
1.2567731654149703
1.044820155621519
0.6418055798309968
0.1947949503339485
0.2177437600000912
0.2536502343404039
0.2806116214816496
0.3067966741394854
0.3353777081133645
0.3684543278923727
0.4061249558257941
0.4526687295604977
0.5106409369810813
0.5810999035255328
0.6615671870337684
0.750750926246996
0.8751355265311798
1.0557893798363562
1.248014354627114
1.262144261629139
0.9862978482591134
0.5855736411478294
0.1964717126427243
0.2194231886885632
0.2554033377383495
0.2827842815917761
0.3096190304833474
0.3388131112887084
0.3724257014579127
0.4111705329561439
0.4598173104897693
0.5204568961650994
0.5954653691530816
0.6799811620390077
0.7792490126494463
0.9175135405761908
1.1166681860351224
1.3129389782175869
1.28964988306157
0.9590790536888806
0.548924039843588
0.1979513441932208
0.221547835869312
0.2576119283635046
0.2843076183894978
0.3117444466065546
0.341799708298878
0.375787354854063
0.4159438546045267
0.4666297275620696
0.5306552779384528
0.6075242849999862
0.695673477514256
0.8069699156120108
0.9580185445678776
1.1679064239964416
1.3474240337845105
1.2868175212410489
0.9287365917775724
0.5239550499983002
0.1996052763510524
0.2238987708553879
0.2596424345843325
0.2858376825993578
0.3130701824430473
0.3437231007286835
0.3786677126279014
0.4208194895010984
0.4724719221807113
0.5387177195797981
0.6193687578124911
0.7146687397350154
0.8360645348536441
0.9925747767337464
1.2093751855478978
1.3470961414639242
1.2372775716245588
0.8811830525321754
0.4991135651015884
0.2012234214649634
0.2257721733920773
0.2609693759399316
0.2870370796983389
0.3143498518497064
0.3453251344910612
0.380925297062855
0.4255818729323692
0.4782322283709679
0.5457317472325535
0.6300707408319
0.7304271980741689
0.8558118486518231
1.0239861327843924
1.2554249958052075
1.3495226886071343
1.189614640112535
0.8351288709038688
0.4765540655953441
0.2027161298578295
0.2271018109788943
0.2623144655565473
0.2881800782094646
0.3157857716944718
0.3473094754626262
0.3835800572926154
0.4297409557080301
0.4848283413831574
0.5548119118866571
0.6407265167010956
0.74352708595521
0.8725684877363601
1.057969207078602
1.2995835720446938
1.3678025806779344
1.1784994591579283
0.8070545168810733
0.4573634627128433
0.2048438155992552
0.2289733031541506
0.2641240759628143
0.2898139858027636
0.3177498225996457
0.3494392252295186
0.3860762321635849
0.4323938896232105
0.4896228951251738
0.5631151529273452
0.6519162590451129
0.7581853359916391
0.8936095478780979
1.0926560798009708
1.3361771524573334
1.3938027415845835
1.1799178941589916
0.7869468755988527
0.4474971111639995
0.2067354330020719
0.2303312344293746
0.2651566481695064
0.291161188272286
0.3197169852102664
0.3513340484987812
0.3884398428452327
0.4349069275915221
0.4935642395988202
0.5686137202987194
0.6584363053548075
0.7697350026223685
0.9106691747791096
1.121333874171177
1.3624983921796965
1.4089350866818673
1.1829196703282012
0.77189336892093
0.4371211900054716
0.2082091987042031
0.2310442448079234
0.2657156713941718
0.2923123442720303
0.3213087277049161
0.3532938213587216
0.3904392364612881
0.437344583713967
0.4986553377076271
0.5747086506366973
0.6648629662839769
0.7803075758415443
0.9227869752383834
1.1414133009165732
1.3830725732405722
1.4227092280807374
1.1860604784597328
0.7597267109927439
0.4258231995321362
0.2096864419947952
0.2323201478592719
0.2669425101028559
0.2936596850054271
0.3225248444217868
0.3548811778128096
0.3920004795333373
0.4397139564872461
0.5031824636421858
0.5802829380047322
0.6731042995019715
0.789613746140561
0.9320782888824606
1.160127862262365
1.408414431779385
1.4368927385341357
1.1803081292290212
0.7512612406872932
0.4215283069675141
0.2111364209555204
0.2336961726901747
0.268385047528127
0.2950096579442157
0.3229482150738034
0.3559925748997369
0.3937744631416262
0.4419970685525746
0.5065227171520171
0.5841453165231425
0.6777985156478112
0.7968698205371618
0.9450376343588294
1.1795455906875714
1.4282232972852538
1.445408889867417
1.1761002156671605
0.7479704695853622
0.4211164531601537
0.2130638622297662
0.2349812312138667
0.2691344178182979