/*--------------------------------*- C++ -*----------------------------------*\
| =========                 |                                                 |
| \\      /  F ield         | OpenFOAM: The Open Source CFD Toolbox           |
|  \\    /   O peration     | Version:  2112                                  |
|   \\  /    A nd           | Website:  www.openfoam.com                      |
|    \\/     M anipulation  |                                                 |
\*---------------------------------------------------------------------------*/
FoamFile
{
    version     2.0;
    format      ascii;
    arch        "LSB;label=32;scalar=64";
    class       volScalarField;
    location    "0.0058";
    object      k_LES;
}
// * * * * * * * * * * * * * * * * * * * * * * * * * * * * * * * * * * * * * // 
 
dimensions      [0 2 -2 0 0 0 0];
 
internalField   nonuniform List<scalar> 
13597
(
0.135388719575715
0.1356004732267401
0.1371641803363558
0.1430527157790711
0.1501419386928134
0.1552655506337685
0.1596822108982481
0.1633699058858862
0.1663721262395283
0.1680532129106652
0.1687622747169268
0.1688446455005955
0.1674801021038198
0.165339674970235
0.1630522792315849
0.1609081227151125
0.1589586627170311
0.1563214549156304
0.1535004145113649
0.1346539718670026
0.134103777808935
0.1347641507731668
0.1409569300712073
0.1463572262016138
0.1505915577900504
0.1543768054714137
0.1574662198638185
0.1598434424468674
0.1608180599330347
0.1608744378054585
0.1603508663954425
0.1590688933659534
0.1578362123577148
0.1576929248332159
0.1584641092860542
0.1596924201990264
0.1610194317952983
0.1623950941151681
0.1327053930625224
0.1316978050046086
0.1322913320239123
0.1375957713122684
0.1411773392386377
0.1444497013244948
0.1468004029219316
0.1483594270846183
0.1492833888851115
0.1497989850803132
0.1501646140043829
0.1512047593255569
0.1530438109887389
0.1553347989388758
0.1584876999672907
0.1618207244678602
0.1648879174581483
0.1676848314903253
0.1701873762943676
0.1307768965710747
0.1303026333071865
0.1312613788600498
0.1356650506135111
0.1387333515177737
0.1412561095484031
0.1428013896294772
0.1443442994783008
0.1455296383984748
0.1471067393368251
0.1491483238049807
0.1521335592797437
0.1563316052164099
0.1612716814657387
0.1660239325333269
0.1702942215779359
0.1738927194308392
0.1774504579679802
0.1808477954058032
0.1318928280506976
0.1316848987540634
0.1332229581142867
0.1379721485333691
0.1411557243969814
0.143454971686716
0.1451562673315608
0.1470372059855527
0.1487765849570251
0.1511570275080142
0.1550227823953323
0.1603082702437648
0.166651336199023
0.1734831108392154
0.1795903350518595
0.1849903568256093
0.1897044906797856
0.1944032199607582
0.1991027576029709
0.1355232274789253
0.1358296762325489
0.1377709916114788
0.1428879697079595
0.1458070455052559
0.1478928202554843
0.1498322112482194
0.1518521181330337
0.1544980377655541
0.1586052018604307
0.1642714946982033
0.1714530548337249
0.179509186064108
0.1865430152267765
0.1931477134580864
0.1988776772921524
0.2036589870095642
0.2076157749651924
0.2113750535744678
0.1404367484389487
0.1416620588971751
0.1443796312249047
0.148609107134263
0.1509667473581733
0.1529139090269413
0.1546874312858989
0.1571024921184164
0.1609065826886394
0.1662196790845563
0.1728298813111712
0.1809688908602409
0.1892327781884958
0.1959147034268924
0.2018188483537016
0.2064662487013229
0.2098574591462562
0.2121496690762311
0.2136870468231841
0.1467891702123037
0.1480574915275845
0.1506773935049566
0.1542984114758513
0.1563066356844888
0.1575682936708536
0.1595413303549072
0.1629319269281817
0.1670667632823074
0.1726832489185732
0.1796967320108537
0.1879537337184904
0.1950364504810094
0.2004924522157244
0.204925165291956
0.2077415089904707
0.2094079807737081
0.2100242979461271
0.2098546885518225
0.153040775456057
0.1536698626742614
0.155990103659998
0.1591494531272561
0.1607566058427138
0.1623292260268665
0.1644782315587703
0.1676576881906976
0.1718060516011458
0.1776250077251026
0.1843651011374633
0.1915589303190593
0.1974456895065473
0.2014686844874907
0.2044777360611458
0.2059541826843961
0.2061292803509748
0.2060486868624741
0.2054536126893284
0.1587231961044633
0.1588532324420489
0.1607103453117701
0.1633396968456925
0.1645362977188943
0.1659821464507256
0.1679689997526031
0.171363629337094
0.1754531982091998
0.180917780829385
0.1871616983362823
0.1927942499470714
0.197650266474216
0.2007926057530205
0.2025023118618306
0.2032342667179228
0.2032949031560563
0.2034810293937508
0.2035338847014452
0.1635121356724284
0.1627038785125477
0.1647470365809803
0.1672723361239292
0.1680885602903682
0.1690515683501711
0.1710448720197574
0.1744482755112532
0.1783544306114747
0.182943685096537
0.1878354011139305
0.192715398948835
0.1965732886007775
0.1991047942237075
0.2005020996812756
0.2013732569724489
0.2025332629011207
0.2037305736101997
0.2049533716689107
0.1669085388153567
0.1655486198909619
0.167917409543617
0.1703305579979109
0.1708865909915739
0.1719590835986654
0.1737325761596292
0.1760686012226799
0.1794814805722039
0.1832009316863202
0.187159646928534
0.1916680421889177
0.1949955523862595
0.197679644360414
0.1999508027132958
0.2019312938959626
0.2041998317975469
0.2067689697516877
0.2098448036571702
0.1698376855175199
0.1691776244906323
0.1715021925449574
0.1725266588934615
0.1730821269157741
0.1740819637905338
0.1754533951746054
0.1772604380205348
0.1801182946410915
0.1832295214926225
0.1869253285594695
0.1910614461101176
0.1945710977476936
0.1979506151050888
0.2012691037087476
0.2044559409480259
0.2081836293516206
0.2127750756897715
0.2182945499631166
0.1732571255438256
0.1724774491440067
0.1746430410135687
0.1746370463270883
0.1751826099445313
0.1758187544669904
0.1764795663975204
0.1779500887909878
0.1802376835161609
0.1831669729414652
0.1866460103692562
0.1907955024544325
0.1952730668700226
0.199632773496587
0.2039134312754896
0.2087627472602439
0.2148189766705043
0.2219623627591597
0.2302459477937771
0.1761270828310152
0.1746402275406373
0.1768598138285913
0.1772600617897491
0.1776697400291792
0.1771928028269931
0.1769636604022181
0.1781537690861221
0.180027866604424
0.1826183485044592
0.1862934524250826
0.1912701380839026
0.1969540148047185
0.2023875386235299
0.2082206210355801
0.2153296100435074
0.2238994803987263
0.2339270905373917
0.2464945499593172
0.1778817682332704
0.1768631698995957
0.179113804711827
0.1797039084947731
0.1795175838648939
0.1782900778305148
0.1775513745458672
0.1779356126706059
0.1796223466471401
0.1819005497701166
0.1863084753466077
0.1929683254689678
0.1996335933846148
0.2062422015210008
0.2142485915727425
0.2236702323233009
0.2350349110433642
0.2495082192019558
0.2693972353441265
0.1792854138970052
0.1792857369276987
0.1813742755006566
0.1815574939121621
0.1804712690609424
0.1787359968637825
0.1777640335186807
0.1773934622305334
0.1786299506601568
0.1814954547551723
0.1867850643959211
0.1947385188445546
0.2027261903118011
0.2109327121291138
0.2214102370249525
0.2335989206923426
0.2488089862121993
0.2701504004966289
0.2984017813355046
0.1811818184707588
0.1816926882043202
0.1837734951648336
0.1832432920649594
0.1811802625846933
0.1787387427015196
0.1776277227153427
0.176863272422821
0.1779570610818796
0.1816345090522816
0.1877190071075323
0.1967024251522177
0.2065483651313416
0.2170264192975577
0.2297666330462819
0.2449595057857273
0.2661331253586727
0.2957012755208548
0.3257946021046002
0.1834422986760205
0.1838314604496694
0.1860913991053355
0.1847293510702296
0.1815718036683657
0.1785889939617602
0.1770860341172949
0.1761935522122333
0.1775337277925864
0.1819964474081812
0.1895402752703333
0.1995259111853643
0.2111531798195839
0.2241828109294669
0.2393001581723937
0.2588958882807466
0.2877657610152903
0.3250225044981448
0.3480902420010461
0.1853592088536901
0.1857664435711686
0.187859083379405
0.185625128403183
0.1816757756570821
0.1782326845991731
0.1763206719440941
0.1756102859908938
0.1773581397037875
0.1825739483361513
0.1916807289194569
0.2031479231667532
0.2164269388855343
0.2314483557081202
0.2503922230149663
0.2760349517292298
0.3134197888078506
0.3555185920587149
0.3641887877608017
0.1876909405051991
0.187705621615689
0.1888748089530074
0.1859772132611348
0.1816939809050853
0.1777287033249643
0.175489619964384
0.1750558166679339
0.1773582505599341
0.1833897986841221
0.1935639691611764
0.2070916501422442
0.2220872827154312
0.2390003405780744
0.2623693416642034
0.2958057278182168
0.3415664907692464
0.3828903858052362
0.3628429758276823
0.1898310799970055
0.1893910507734879
0.1898473977444982
0.1864040908825986
0.1816809213023216
0.1772087427598045
0.1747906381802108
0.1744465120812982
0.1772388754008447
0.1843534053944709
0.1958271759297925
0.2108923673489709
0.22761531080668
0.2477988299216661
0.2754656894173954
0.3173163045414262
0.3693987088307079
0.4044277037274261
0.335790178169135
0.1911602785759972
0.1906568553495278
0.1906680342832448
0.1866551398621657
0.181219886723312
0.1766307881871099
0.1744722105005457
0.1741524028209898
0.1773587228797364
0.1857403446961354
0.1988370789906536
0.2149407327330868
0.2332144253063198
0.2568338839941195
0.2910678656890244
0.3410197408986514
0.396114062689225
0.4083795596732096
0.3041192938214878
0.1925736946302216
0.191624020515494
0.1910374198627035
0.1866317996813243
0.1803800048109889
0.1757843131935522
0.1737708666465822
0.1737143599446052
0.1777413971371696
0.1872324783664968
0.2016639447492333
0.2194409389928618
0.2398599799045668
0.2666109837486298
0.3075025081737995
0.3650304582888837
0.4201805787813001
0.3986644526598331
0.2751240605179842
0.1940938531463665
0.192304374506344
0.190910920707105
0.1859939571462329
0.1793355002085605
0.1747890777358556
0.1727283262699589
0.1732429784065791
0.1782949893442729
0.1885753168201035
0.2043560932383428
0.2240036764428087
0.2467028090926205
0.2788223876041244
0.3252681554268087
0.3873575145229255
0.4369484670417816
0.387351925666593
0.2444401124355293
0.1953545963991572
0.192811176047165
0.1906585953233396
0.1850557824552203
0.1784189434819737
0.1741214984666973
0.1719692808517246
0.1730122964763074
0.1788636749210874
0.1900989955832029
0.2069688025826406
0.2280277455942683
0.2533502049553837
0.2905291470175833
0.3431860550567108
0.4087841686386565
0.4392162998995022
0.3652655434863989
0.2203869812570508
0.1961525712920452
0.1929871861134302
0.1900874291657187
0.1840786574292092
0.1775599355265829
0.1733526554752538
0.1713397996879281
0.1729692108072498
0.1794770307798794
0.191835423985995
0.2095862443165835
0.2318144847898209
0.2598342924834564
0.3005776454026553
0.3597160154160631
0.4271337940830553
0.4378158843644592
0.3412405672684145
0.2004269321437224
0.1965348766672555
0.1925254934042394
0.1889545792624082
0.1833044651015396
0.1769451321229486
0.1725490210827419
0.1709470070741122
0.1729020609565972
0.1798321777288204
0.1935260374618317
0.2125838382873684
0.2355330931133902
0.2659306590981836
0.3109940966385601
0.3768848105800302
0.4438901368527275
0.4425465643263814
0.3255208328178766
0.1841164856353587
0.196473276624986
0.1920524176954832
0.1880429163241879
0.1824854695300678
0.1761821467354274
0.1716508374637904
0.1704391097307792
0.1727548810753035
0.1802391918455262
0.1947541340692839
0.2147459733132565
0.2393781304197174
0.2736830352418986
0.3222273691453542
0.3924800566427207
0.4562383624867009
0.4407192281194844
0.3109118975125672
0.1728858594274676
0.1959842802219998
0.1912674228277069
0.1870898751746399
0.1813304228934565
0.1750293505629215
0.1705378582983244
0.1698401211978149
0.1727637012334079
0.1810656138691329
0.195737086794865
0.2161128042595129
0.2433623119837853
0.2805991371589991
0.3326025598443798
0.4060664692284048
0.4529568485964307
0.4207847431731868
0.2957798515069577
0.1656702951469829
0.1951456635792249
0.190004186630507
0.1858872334288097
0.1800481291498871
0.1737495768244693
0.1695104250326707
0.1692721487926996
0.172855697069407
0.1820163131462142
0.1971515164862868
0.2179880205855955
0.2467947058668114
0.285425029919544
0.34167261393252
0.4177972089189087
0.4470417083849742
0.4001631563414076
0.2825843774095521
0.1605826236378384
0.1941859629161265
0.1890929651425696
0.1849137021993084
0.1787104133859902
0.1727000385139883
0.168741116010693
0.1687415604830642
0.1730414872691599
0.1829145370391127
0.1986167951152619
0.2200028587740208
0.2495117734074019
0.2899922477794459
0.3526711325325013
0.4287034451724819
0.4495906610339176
0.3932654281756785
0.2717469353903103
0.1549094131192219
0.1930398092733156
0.1882700574993331
0.1836404155714018
0.1773711070490098
0.1718709904359709
0.1679826475913024
0.1680813058592944
0.1730828409919769
0.1835620270434074
0.1998923426241804
0.2220897653774736
0.2526706968222443
0.2944793923669161
0.3620823073892746
0.4388321865765612
0.4546997549143832
0.3913021124700213
0.263246063432034
0.1483857186174322
0.1916180118710226
0.1867083630305107
0.1818434873624581
0.175957887394783
0.1709561735215858
0.1672283332817609
0.1673700153417751
0.1728449126739
0.1840020257597857
0.2009792707624419
0.2243288199097033
0.2559867988845156
0.2985254606943712
0.3691441298336405
0.4480160134729865
0.4591430468429902
0.3897932254505122
0.257964670941572
0.1441705042149273
0.1901695391583623
0.1849747961665056
0.1803103789694451
0.1746671541085152
0.1701139014174112
0.1667018589129417
0.1669349110245211
0.1725796344738125
0.1842039132065995
0.2016534820306107
0.2259048953548681
0.2584088091383398
0.30238984811132
0.3756479760071062
0.4549331993848212
0.4612811970034649
0.3867583583344011
0.2535997033640978
0.141366019197115
0.1888830081492497
0.183492601293406
0.1790262360615858
0.1736063979996163
0.1691598822902777
0.1659310625439856
0.166460527888708
0.1724345751950404
0.1844106090893159
0.202092681349748
0.2268961422236997
0.2602595415577907
0.3061913690717716
0.379830751501203
0.4590944035800752
0.4634900804053023
0.3832461285677034
0.2482891827004839
0.1379716838877484
0.18766115944095
0.1819189001366824
0.1777482243765141
0.1725403215975333
0.1680350202460302
0.16515163051588
0.1662420738489571
0.1725848526100791
0.1847315613058823
0.2026291791269986
0.2277647326217624
0.2620882822528994
0.3093977937251055
0.3836508382453792
0.4617259802603045
0.4626609467998716
0.381205825834738
0.2461185824604271
0.1353330977113318
0.1861720459832242
0.1802713199589334
0.176397241393325
0.1714116500253706
0.1671576685590962
0.1644908140386859
0.1661586982999811
0.1727849350165545
0.1851547290061326
0.2031384228022816
0.2286575268258646
0.2639848281450102
0.3131893482781656
0.3880236618194146
0.4616937225699024
0.4599881820062695
0.37805915898627
0.2448201394478203
0.1338431758343386
0.1844262923390336
0.1784105914504222
0.1748553264417127
0.1703649492672642
0.1665134713051284
0.163991893262706
0.1658584771882395
0.1725631836636871
0.1855325809849074
0.2036350219647175
0.2293748245413538
0.2655408763823373
0.317656340024378
0.3934724677196478
0.4604330348562343
0.4562072405167328
0.3733684041934141
0.2417852974346944
0.1328669514847591
0.1825831640954996
0.176612962002731
0.1732767657781224
0.1692277792733647
0.1657813913975502
0.1635949227299234
0.1654575529553381
0.1721463583347734
0.1854505559036994
0.2037391331203677
0.2296047533895912
0.2661628846919655
0.3199743861187967
0.3974786127611996
0.4599284492583404
0.4515712212652032
0.3701638994426633
0.2400485245370375
0.1323946712468835
0.1809868114070953
0.1752690839154871
0.171939680635395
0.1680964726815475
0.1649682405124293
0.1630071920076559
0.1650746565873253
0.1718343366272146
0.1852886630313685
0.2040453204662933
0.2297987371112115
0.2668299446282355
0.3215375459874657
0.3987920586379834
0.4578568124441571
0.4461283539909889
0.3663805681897736
0.2380962419068537
0.1320657001223063
0.1795970197618298
0.174124999634187
0.1710236386252043
0.1671752223870417
0.1640945741604223
0.1625180674292524
0.1648465460956539
0.1717028216916854
0.1854950270433655
0.2048637856980987
0.2303481655756218
0.2675895987933626
0.3228308199307942
0.3986311257535345
0.4558349869224599
0.442813747699349
0.3624300776378693
0.2347127931211183
0.1309965499270872
0.1779742076538735
0.1726481308898958
0.1697998143313583
0.1660110470350977
0.1630943354753991
0.1620977413276852
0.1645769321460375
0.1715419731116724
0.1853528610315979
0.2050109854984362
0.2306298752012394
0.2674712340835871
0.3226124372779855
0.3993089085065704
0.4566336247355216
0.4416966084623412
0.3590960584437679
0.2315877014794112
0.1291573147509062
0.1765710223980439
0.171263191705621
0.1684039860612082
0.1647894566459418
0.1621409522947356
0.1616202372684191
0.1643136058198922
0.1714429502981273
0.1853479050950338
0.2053137874302006
0.2308921251303685
0.2678319231728598
0.3229770918464043
0.3999696210959036
0.4543894394094055
0.4370852591196896
0.3553531722562513
0.229281096525803
0.1279943961147408
0.1612733015758192
0.160708284809732
0.1581770121752052
0.1543161951918722
0.1500654427657062
0.1442542224443723
0.1376649678552473
0.1303598483250425
0.1227478013284386
0.1152769175463388
0.1083991986365237
0.1027922777260296
0.0976699552027528
0.093362980396467
0.0908062264273865
0.0894003809880983
0.0893900702578471
0.0911220324019393
0.0940221517423522
0.1639149760386631
0.1624615499343372
0.156453275978993
0.1492378168864688
0.142562442303158
0.1347543281193585
0.1271933629130682
0.1192712681594709
0.1116801160457621
0.1053872543205561
0.1009036896047442
0.0988404784238629
0.0988174527300601
0.1004039772247302
0.1039428407521532
0.1087535801702595
0.1145789279052667
0.1212986540957475
0.1279871749369245
0.1673397554115783
0.1644940715160099
0.1547488209335166
0.1443804850779469
0.1356822951479768
0.1266389658633786
0.1183795244022236
0.1110008036328292
0.1054576861536924
0.1027143797770426
0.1032916612018052
0.1068310578330923
0.113218415309536
0.1217923309107165
0.1311437124777518
0.1403751365940796
0.1485523046015364
0.1557869711948639
0.1625274698926981
0.1723113632675483
0.1673882826261728
0.1530727379670153
0.1388809879018064
0.1277522179032668
0.1177999987902594
0.1102058877794949
0.1052670612518484
0.1033114508103388
0.1048317072362104
0.1110325440815438
0.1204585281110615
0.1320783197321487
0.1445253279504821
0.1550343822565706
0.1638688812802262
0.1712449516839657
0.1779316996061954
0.1846700521240568
0.1762507394161567
0.167581429518199
0.1493211011551422
0.1324619871823995
0.119713122107033
0.1101404475690227
0.1050643763550623
0.1040854364678019
0.1075048456963375
0.1151097487796414
0.1267552731392443
0.1402409943129239
0.1542876181489669
0.1676847695503077
0.1780172986241187
0.1861786773255325
0.1930041255090791
0.1986156971592106
0.2034541915077483
0.177199391397098
0.1647722625864808
0.1428276056524303
0.1247897076273589
0.1131001254019203
0.1064467378479783
0.1054966749408072
0.109664950284352
0.1185772695316016
0.1313470112769767
0.1464711174998644
0.1615427092070019
0.1756584357554186
0.1871514683490534
0.195612775736427
0.2017098969976755
0.2057289260771075
0.2085727104715669
0.2104507466790565
0.1771714163313716
0.160280500929261
0.1348540621163657
0.118007962984689
0.1097308079553006
0.1074626843125741
0.1112101912689771
0.1200053334646029
0.1329927363529114
0.1479948857512044
0.1635758924355422
0.1780770236602195
0.1898151305881067
0.1982238457240986
0.2036575741965991
0.2067182210520227
0.2077496939727773
0.2077311766664137
0.2066099351135257
0.1744069090045227
0.1530834223557068
0.1278768742278214
0.1139955899507404
0.1093333047084609
0.1114692422491814
0.1194351344820444
0.1313281218018132
0.1460490299381958
0.1608839671991484
0.1752542357847475
0.187686667747429
0.1958711932517548
0.2010791713699186
0.2035804100797502
0.2039089369989698
0.202538891652915
0.2000946678864721
0.1966169302727826
0.1695887711235966
0.1465787250292653
0.1230261682790897
0.1127063760735316
0.11178512768444
0.1172970239060247
0.1281411678357973
0.1418492977892002
0.1560634566195372
0.169588734431845
0.1818552132090577
0.1912210630536751
0.1965282030807046
0.1987537761232448
0.1987025501254819
0.1970124805698818
0.1940676360096352
0.1902800208030226
0.1855443830684709
0.1630672008813803
0.1399674071048709
0.119656250371602
0.1135094631356528
0.1156290436083807
0.1236336510616929
0.1357499482319995
0.1494710309342004
0.1627554858205993
0.1749498770840973
0.1843618701192423
0.1905035934784674
0.1936140379976511
0.1938602100281386
0.1922245994787464
0.1896446567102729
0.1859832516612043
0.1815232002735394
0.1761787179530184
0.1551992794729687
0.1334939706234147
0.1176488703111506
0.1153049459656738
0.120006834205224
0.1293913240019345
0.1412674698156139
0.1541681928539862
0.1665271987559048
0.1768737411893794
0.1839603564385408
0.1882694836530779
0.1894848753565462
0.1884918768140095
0.1863530321605737
0.1832189465867228
0.1794312363655619
0.1749202902331176
0.1698299702564658
0.1484576321861021
0.1286735265758408
0.1165580019856877
0.1167986907870284
0.1232002370078318
0.1333552742327052
0.1447654239677145
0.1572096116402786
0.1682902574253627
0.1765576134803579
0.1825682171529296
0.185605672983605
0.1855655062685811
0.1840249861132057
0.1816409237206186
0.1785219636358422
0.1751194754749112
0.1712903278912723
0.1673667575652067
0.1427082357874095
0.1248713263921801
0.1161762714723898
0.1186414123271765
0.1259750114216623
0.1363511248796533
0.1473883169597963
0.1587060837929172
0.1684913647039528
0.1754138744971139
0.1803022297704008
0.1825672882190882
0.1822875002685204
0.1808812414068027
0.1787027721134853
0.1760877708682893
0.1736724061324087
0.1712528543546511
0.1688519709575879
0.1376787277723031
0.1222720819493055
0.1164161867081048
0.1204288306031224
0.1283586905828929
0.1383069520935857
0.1490473858282025
0.1595585451137594
0.1682860245701199
0.1741345386120195
0.1780795024767574
0.1799759892001081
0.1799578935136315
0.1789400200902282
0.1775352502658068
0.1762239941486615
0.1751926603785088
0.1746384967951689
0.1742570491327459
0.1336717827109453
0.1206183224134941
0.1168620291294573
0.1216207229869247
0.1297819188744778
0.1395669971915688
0.1499422237473829
0.1595882486943145
0.1673464068575499
0.1728066998410186
0.1766105237741808
0.178465076639254
0.1787999755955596
0.1785003305063932
0.1781683088427781
0.1786306237633411
0.1796779923526748
0.1813951986969042
0.1846090804567215
0.1304390125098476
0.119158880141082
0.1173758006996428
0.1224702103854827
0.1307238091827303
0.1404323542468842
0.1504207881621899
0.1595667099976672
0.1663424522056138
0.171794810890501
0.1757064132571343
0.1778331214573209
0.1788736774815548
0.1796379974225175
0.1808261598996022
0.1830258397902366
0.1865673013491749
0.1918469832295793
0.2003099052130248
0.1281690992849181
0.118199972097622
0.1179135841447261
0.1231331715378228
0.1315832652131512
0.1410124498990703
0.1506729553416188
0.1596919739014095
0.1661256910654663
0.1715163358349414
0.1752053713237116
0.1778151293291996
0.1799935517215375
0.1821990117369769
0.1852378369954555
0.1897099149523415
0.1962493538416761
0.2065747527182189
0.2197432852740212
0.1263914625549967
0.1177894178093804
0.1189624620145628
0.124481837471181
0.132506076940274
0.1418030602853256
0.1512736379414215
0.1595547749718601
0.1659492507739108
0.1714361997055785
0.1751589091677329
0.178641450025823
0.18203255581783
0.1860480694645149
0.1912488956953887
0.1985530579551396
0.2095085063465704
0.2261891820197236
0.2402197484454608
0.1249378910588177
0.1175142728213602
0.1199627471881973
0.126081460633656
0.1336740916336307
0.1422028274846045
0.1516903929379561
0.1597070775272026
0.1660781014301905
0.1716426139442303
0.1758065389421661
0.1803221248081127
0.1851237596213353
0.1908860041916431
0.1982675805569912
0.2094744371360157
0.2264347147520933
0.2483578325682794
0.2563105097793907
0.1240308273680931
0.1178939946814532
0.1208138198663837
0.126977090534717
0.1347189041416403
0.1428514622879309
0.1516682862531241
0.1595680816343772
0.1662577876326397
0.1720301278454203
0.1771514603071301
0.1829364830116434
0.1894579013038319
0.1972004050441329
0.2069968834605373
0.2226351272970682
0.2471525593589109
0.2705739871526238
0.2667429653638704
0.123467553519054
0.1188590895724613
0.1222323268362455
0.128190338170591
0.1359139441420734
0.1439304713039454
0.1521743690629338
0.1599500271901972
0.1664101808960407
0.1725071655526984
0.1789297415422808
0.1859776120924785
0.1940901456570881
0.2044823931009432
0.2183408079448974
0.2392376799667717
0.2698198138657698
0.2919906071669482
0.2675847453503718
0.1234052772392067
0.1198485069416326
0.123934391194851
0.1299850543952922
0.1373376704195951
0.1450954450170003
0.1529854250520683
0.160673907202383
0.1670900952504954
0.1736032573752277
0.1810537646123081
0.1894397533528838
0.1991235639471331
0.2121175340106205
0.2300902415198176
0.2583399481286358
0.2955490992431169
0.3147280870652306
0.2511194143724681
0.1239469512547088
0.1208170403461947
0.1255471895761436
0.1316871155457733
0.1382979980274125
0.1458854503753081
0.1535435499991091
0.1608264229910392
0.167801361863474
0.1750147067547376
0.1833235662088569
0.1934371437748489
0.2055095910406073
0.2211157027925992
0.2444678275064735
0.280890933806851
0.3211756918753696
0.3205982270225043
0.229816069521903
0.1251190937053299
0.1224302563016254
0.1273045062349348
0.1333660094314768
0.1396104249893556
0.1465786585353881
0.1537319631135631
0.1607228898855683
0.1681305662927598
0.1765604669688008
0.1859787683562773
0.1976219805815364
0.212214711400535
0.231081496397246
0.2611375543160177
0.3050540039331189
0.3427577025626744
0.3137558379020256
0.2128071908036389
0.1267939151451855
0.1246610388168967
0.129491613535778
0.1351731182760269
0.1413226343957329
0.1476616509215143
0.1540557926054596
0.1609322016140094
0.1688441179323899
0.1783615018630004
0.1894297771038096
0.2025384512585396
0.2190224070315125
0.2429052516227986
0.2796521861443699
0.3269623730509693
0.3585567097396815
0.3112668371421697
0.19572221205086
0.1286348248273151
0.1266510379743459
0.1317014138003515
0.1372133843953609
0.1430254747445313
0.148755564718976
0.1546823405928947
0.1615766516994219
0.1699966922558676
0.1801964109250398
0.1925302792310705
0.2073994622512206
0.2255920889577345
0.2542135316242686
0.2973527283271011
0.3463424658987454
0.3609151588421985
0.2960390964452372
0.1790734590326346
0.1310537213731195
0.1291283902150301
0.134059858998389
0.1392732560229481
0.1445324518340623
0.1496255865547839
0.1555229536728911
0.1625387972464952
0.1712001782968635
0.1818961058072813
0.1955444287889981
0.2125191395954662
0.2330753247853985
0.2649556509343999
0.3131400202865699
0.3645956605324315
0.364419243430439
0.2813229408745317
0.1650222562091621
0.1338110387319344
0.1319762371488162
0.1366297538056415
0.1411833156837935
0.145708864931002
0.1505865828135307
0.1562981449626798
0.1633701569357011
0.1723465291846313
0.1836221048146241
0.1988408378286901
0.2175046006776155
0.2412850891873156
0.277805394893612
0.3317630728619232
0.3852269066270292
0.3745234489962637
0.2755260872519261
0.1568070157326448
0.136410092852835
0.1346048111690823
0.1388785102622794
0.1427881954280951
0.1468547124200146
0.1516186298438258
0.1569096473616784
0.1641248575986256
0.1734024241944724
0.185437528734652
0.2015050663134462
0.2217277399363393
0.2493999507570539
0.2899136240331203
0.3476821070837592
0.3970912191851869
0.3756952196447158
0.2690493409435073
0.1518314022195672
0.1391022733664557
0.1376231776443054
0.1411383103638267
0.1442434427471818
0.1478955148586009
0.1523677182939339
0.1575530021032238
0.1650815660689588
0.1744500365407083
0.1871550900709689
0.2042635530556398
0.2267062111375394
0.2581896940997511
0.3005668198344175
0.3608011826529668
0.3986534458857395
0.3631546372978081
0.2573388919251158
0.1460888166618535
0.1418815932868776
0.1406346716589616
0.1434680212802853
0.1458865941322633
0.1489197587226404
0.1528581471764908
0.1580729952826629
0.1660967479951311
0.1757134620227046
0.1887324941003731
0.2069890480957686
0.2311399104985229
0.2646831604647179
0.3113033561224078
0.3760381105781663
0.4008742247153106
0.3507913649079062
0.245484895862623
0.1407285338565522
0.1450272716200771
0.1437229951169698
0.1462369355912451
0.1478082351764127
0.1500684043924146
0.1534302670492676
0.1585803378999187
0.166856256735365
0.1770025398054868
0.1906282679894292
0.2099080156312944
0.2351533706176173
0.2701735327205937
0.3229457272999967
0.3912740643724883
0.408149140627937
0.3491416524468239
0.2389381675940642
0.1365920339698639
0.1486116888566971
0.146826258901947
0.149182724120116
0.1498235171055389
0.1510218942927132
0.1540569090629274
0.1591237583357967
0.1673007953740871
0.1778777763480137
0.1924434591037759
0.2129829937649653
0.2399956241623001
0.2772737835884325
0.3338518473330421
0.4032070846452798
0.4179393878111117
0.3513394629180446
0.2342659085696016
0.1345544112899924
0.1519056609016319
0.1494371341638838
0.1512467470553033
0.1515030373550288
0.1519435505416387
0.1548122592731431
0.1597460065969433
0.1676654227357927
0.1785451638448076
0.1938631298500267
0.21512574371701
0.2441588560842489
0.2832183258755716
0.3425584114003621
0.4116515443306411
0.4244527353077981
0.3545127047180098
0.23103770209319
0.1321485451911097
0.1548880583082504
0.1518750630341755
0.1529286145883367
0.1529894170792719
0.1532941694346111
0.1557650168066069
0.1604332268513089
0.1681799181344699
0.1795861119060894
0.1956481926195906
0.2174569392536073
0.2480070514017203
0.2875123489178579
0.3495239084650611
0.419431644682518
0.4306159342138269
0.3585238695677105
0.2294631504027807
0.1297770802315029
0.1576505917646793
0.1544196861511671
0.1550596488332699
0.1547349925363424
0.1547672296072646
0.1565434473270101
0.1609740022863008
0.1688005649777027
0.1807807349384526
0.1973312468106304
0.2200656587017723
0.2514324677456237
0.2913360053097792
0.3565154708989794
0.4286974331053774
0.4363107847619584
0.3591381116887287
0.2288768815482521
0.1291738906908257
0.1602669152525172
0.1570232971769275
0.1570891492624831
0.1563547276924195
0.1557700458340199
0.1572750995910621
0.1615025144394666
0.1692741959045089
0.1816127143069839
0.1985650087722746
0.221706619136553
0.2540927146378826
0.2961457633730941
0.3633933804377275
0.4357827367348258
0.4405340776507689
0.3600839677759687
0.2294770132903656