/*--------------------------------*- C++ -*----------------------------------*\
| =========                 |                                                 |
| \\      /  F ield         | OpenFOAM: The Open Source CFD Toolbox           |
|  \\    /   O peration     | Version:  2112                                  |
|   \\  /    A nd           | Website:  www.openfoam.com                      |
|    \\/     M anipulation  |                                                 |
\*---------------------------------------------------------------------------*/
FoamFile
{
    version     2.0;
    format      ascii;
    arch        "LSB;label=32;scalar=64";
    class       volScalarField;
    location    "0.006";
    object      k_LES;
}
// * * * * * * * * * * * * * * * * * * * * * * * * * * * * * * * * * * * * * // 
 
dimensions      [0 2 -2 0 0 0 0];
 
internalField   nonuniform List<scalar> 
13597
(
0.1520023499107111
0.1495486213256738
0.1453858017710753
0.1444157098684391
0.1470859776544676
0.1503593105210457
0.1541579015580492
0.1585381896005876
0.163347184707031
0.1677248259573767
0.1722814571732183
0.1767955034810235
0.179871569950166
0.1821821957248787
0.1839821663073868
0.185328512294168
0.1861073389677369
0.1857520142813051
0.1848714070441646
0.1547592644120447
0.1513338857658605
0.1452842101456966
0.144501587350349
0.1465535243347749
0.1492686610829094
0.1528490536803922
0.1569908102292792
0.1613837752038913
0.1649152061370386
0.1682208721506889
0.1711357927896817
0.1727996116433069
0.1741921267675101
0.1760603887858428
0.1780417650820623
0.1797236759371743
0.1814366007849943
0.1834636481140377
0.1545126273786997
0.1503756653731075
0.1440771257262961
0.1432893927984567
0.144874413038644
0.1477478462510423
0.1507585891571703
0.1539655323545344
0.1572351209358352
0.1602387371825084
0.1629504892765469
0.1657386081829986
0.1685744619932248
0.1714097195503976
0.1746418920713409
0.1780525307795034
0.1812960800636251
0.1845883945739421
0.1880394846839218
0.1530729507761789
0.149232463075627
0.1442891895658976
0.1444607874729836
0.146929150906729
0.1502192710875753
0.1534139505251235
0.1570654943940397
0.1602675011436853
0.1632976922988412
0.1661556392906922
0.1693739456310209
0.1730215104106615
0.1775397109669693
0.1821378970504439
0.1863575851943551
0.1903559907057279
0.1946647531335081
0.1992380971811068
0.1535845792676945
0.1500440801459422
0.1473350336231836
0.1499569996634839
0.1536802760047478
0.1574426321169091
0.1612879865092689
0.1650186442249352
0.1677315983290198
0.1703485520122594
0.1737079832304733
0.1780404082167853
0.1833324194222421
0.1893930617448979
0.1952454043843692
0.2006878291022769
0.2058770883514086
0.211330108486375
0.2172014628547843
0.1560610531568658
0.1534489314047236
0.1527594201673354
0.1575131584371796
0.161946017757541
0.1660006877095659
0.169660074905173
0.1729158511072357
0.1759844712423141
0.17948652881902
0.1836761068316535
0.1891996126179143
0.1960970949365844
0.202440958825461
0.2089010641417013
0.2150618625702303
0.2206285578791037
0.2257587668707532
0.2312664186443954
0.1596681563968958
0.1586639998840712
0.1603518468853307
0.165505193584938
0.1698934852100958
0.1739512577802257
0.1771446856996906
0.1803823197346253
0.1842567147948966
0.1885560946855562
0.1935412194871977
0.1999967604397874
0.2071324671708397
0.2134849196130069
0.2199121588221807
0.22561848965609
0.2305554789873824
0.2350002523212343
0.2393377980749041
0.164904833550653
0.1650064840567263
0.1679242330071052
0.1732973262807533
0.1775596352535308
0.1808325083991676
0.1843607978834256
0.1885679569993175
0.1925720870711961
0.196997343981102
0.2025929418819139
0.2094661526783335
0.2159226596663942
0.2218580053740984
0.2275677751329099
0.2322843546211866
0.2364528088057721
0.2401481378068313
0.2435424955892629
0.170411380214183
0.1707196599308996
0.1741287660365919
0.1797416267505307
0.1842544122672551
0.1878872839487018
0.1915924545214928
0.1956545546222713
0.1997202030359273
0.2045231913092267
0.2099423702739338
0.2163648742146002
0.2224881471523401
0.2280300705228731
0.2331536422783172
0.2373159015929274
0.2407456381157457
0.2441446879652941
0.2473617102360692
0.1756117263737437
0.1759781232563046
0.1795852726748993
0.1854227945740916
0.1900097790620633
0.1939933491267007
0.1976651215458131
0.2018964767059383
0.2061078125775533
0.21068908682792
0.2159452228765001
0.2216349558024362
0.2277371150744181
0.2331660682291386
0.2376490289481635
0.2415590366583306
0.2451227955525772
0.2488783596997761
0.2526407760463004
0.180027482253738
0.1798619206308816
0.184488518630952
0.1908365375017783
0.1954443606154551
0.1996826982993713
0.2036972493555021
0.2080462140743365
0.2120349164970181
0.2158736054541206
0.2203860300406086
0.2259991273641578
0.231804121078592
0.2370849708684815
0.2417495354614273
0.2460356554814102
0.2506086951584487
0.2552796940857346
0.260210609222587
0.1824878715460259
0.1822715448020538
0.1884773343107489
0.1954637869035415
0.200413308700592
0.2050156956416572
0.2091328001307146
0.2128112989447438
0.2160343847770937
0.2193320593431728
0.2236603994176863
0.2294739157762232
0.2351691415876287
0.2408287370985819
0.2465654237951898
0.2519811408357148
0.2575947253967974
0.2638359508628793
0.2709837961402341
0.1842554275402559
0.185304460382808
0.1926743027554552
0.199422241578496
0.2048528583578949
0.2094569445850315
0.2133179064464518
0.2165731935073732
0.2194650466675022
0.2225519589266099
0.2270389250337431
0.2328678131854623
0.2390747980787534
0.2457504293781817
0.252481404070184
0.2591311937286448
0.2666158371139789
0.2754434159347115
0.2855170150582061
0.1865348663120499
0.1882219185992376
0.1965518421099821
0.2032678083750435
0.2092879218376919
0.2139591226172146
0.2169676048227379
0.219465948810276
0.222156730529755
0.225427996149282
0.2299070487617245
0.2361875789755254
0.2435559059007377
0.2513032585761798
0.2592225073103499
0.267953961452983
0.2783804200406451
0.2903064577965003
0.3037807504721075
0.1880942393540299
0.190245705905801
0.200162252576306
0.207763921640396
0.2140513754989607
0.2177853653340309
0.219935302019222
0.2220319263382937
0.2243796406884559
0.2276330307325041
0.2326089402076772
0.2399189186839701
0.2486989358968003
0.2577491783936689
0.2675092769596193
0.2790228491066042
0.2926318262223016
0.3082726507031587
0.327430617329973
0.1887380429850652
0.1926062882461018
0.2039015796630029
0.2119752630312754
0.2178557277705718
0.2207719665861717
0.2224785848419719
0.2240914040355589
0.2263766259259196
0.2296158523043794
0.2355378834537974
0.24450990014907
0.2545583617155658
0.2652040944333396
0.2774867280519477
0.2918877067522049
0.3091159023537768
0.3306319014881645
0.3597268460851249
0.18927277571626
0.1954549178123372
0.2076950023602237
0.2154488402127024
0.2204924823951762
0.2230651982623748
0.2244471502751859
0.2254503279483004
0.2274515036224617
0.2313834040391203
0.2382869536163714
0.2488512597223343
0.260636258391997
0.2731822558935644
0.2884635535904035
0.3064808573429133
0.3287838671206795
0.3595080309415409
0.3997761479927534
0.1905580837690977
0.198329804110673
0.2114118864684799
0.2186831302311717
0.2227236088797395
0.2247414376577851
0.2258777080975327
0.2263826467220244
0.228473150803659
0.2331878943268556
0.2411776313401976
0.2533044692541311
0.2672522067205143
0.2826113028528082
0.300856781295086
0.3227904575440405
0.3532134286654009
0.3951233000809645
0.4374795495191218
0.1926413271172339
0.2012343951222313
0.2149971105921564
0.2216487779238215
0.2246912037016909
0.2261433536353404
0.2267943786360505
0.2271339641861219
0.2295345115830132
0.2351033871827586
0.2449465394370883
0.2584868373266687
0.2746167403469831
0.2932399646023795
0.3147064926867522
0.3425532760734677
0.3834300160296086
0.4357995195811106
0.468143949592596
0.194820447671365
0.2042679430958991
0.2181311176538049
0.2240808931867353
0.226347712527198
0.2271523658598536
0.2274945920116883
0.2279945681267927
0.2306052404616462
0.2371636767126055
0.2488098117854477
0.2641543714682169
0.2826235456892984
0.3038859616960738
0.3305724509031024
0.3664495626975382
0.4186750771663599
0.4775281171195629
0.4899014085907032
0.197465813120542
0.2070703566757519
0.2201148898478354
0.2256529659738846
0.2276776767217969
0.2278459073977482
0.2278421159296045
0.228517422000679
0.2316592549826903
0.2393096053098138
0.2524202633526495
0.2703114571601002
0.2910995332223206
0.3147509053308047
0.3474631024627865
0.3940622705472927
0.4575709826013591
0.515226384522844
0.4880091662748067
0.2000464163013126
0.2095906294225361
0.2220749168375332
0.2269436594267192
0.2287276077776511
0.2285220511656215
0.2280813789087815
0.2286815978384437
0.232485413307234
0.2414925769444117
0.2562192335763696
0.2760379595269919
0.2991571177601869
0.3271671925441347
0.365760513848077
0.4241610581149126
0.4964768092070251
0.5452639553091582
0.451834701654674
0.202168275731971
0.2120158801587411
0.2240147302963465
0.2280998127096553
0.2291424687121321
0.2287641184135448
0.2286142045457914
0.2292659821584345
0.2335961020685078
0.2441265667091711
0.2606684710508298
0.2818890359642415
0.3071386401191791
0.3399092241340016
0.3876731299636062
0.4573167650127528
0.533779744899216
0.5511489510126446
0.4098584525227045
0.2044602506091836
0.2141346670467984
0.2255115613536925
0.2291036732470432
0.2291599731979224
0.2284697616862169
0.228486319919285
0.2295571107995926
0.2347816788584668
0.246612191719895
0.2649221808020943
0.2885016813331534
0.3165537589489182
0.3538078284824693
0.411075277314356
0.491108338913171
0.5674362574893821
0.5387608164733539
0.3713489292140173
0.2067984881533803
0.2155542160882323
0.226269034749477
0.2294405124557351
0.2289100554350361
0.2281251038609707
0.2280123472543385
0.2296136284676971
0.2358460710123677
0.2487050805981459
0.2689636233734011
0.2950597420084286
0.326185657262126
0.3710701060538071
0.4361612197440426
0.5223075423154866
0.5907761648414797
0.523891660703914
0.3300686490877286
0.2087715192277729
0.2167150983087378
0.2267831329792347
0.229310470223757
0.2286551909013795
0.2280458230060331
0.2278338928503467
0.2298472012339782
0.2369562683923707
0.2510790676736604
0.2728948495034984
0.3009919925973455
0.3357870152190856
0.3877137305781966
0.4612323065466196
0.5523554302363127
0.5947802594170499
0.4947052134944699
0.2981542683614758
0.2104166986591457
0.2176932597008554
0.2270166742139905
0.2289765405871577
0.2282977144785951
0.2277647202116575
0.2275865730713527
0.2300622173527192
0.2380841417306575
0.2536784491238956
0.2768467152810555
0.3065658841684195
0.3452476365145657
0.4022467580434777
0.484706674910518
0.5786111631888373
0.5942108230470832
0.4632223809853502
0.271683878313371
0.2117328871439744
0.2180384236165622
0.226577509763672
0.2288760501095736
0.2281760925267998
0.2274030191025235
0.2274705025998785
0.2302844916414087
0.2389762142749205
0.2562747194904669
0.281206480820209
0.3119589209710131
0.3541262612410435
0.4172578826784286
0.5093822816993122
0.6027342913524568
0.6014282318653797
0.4425079776635837
0.2498829042630202
0.2124473647290621
0.2181344256742699
0.2260339733184028
0.2286155724001599
0.2277124207227693
0.2266435180220789
0.227088522676981
0.2303882194738025
0.2400102396339545
0.2584811760907095
0.2844161522399855
0.3175197217507597
0.3653296312702479
0.433373124270991
0.5317233459985254
0.6205123872451033
0.5994757117648382
0.4233302695809567
0.2353622234800828
0.2125970527285863
0.2178374012348075
0.225491087223599
0.2278590218705721
0.2267171345682108
0.2254744237838424
0.226440346839155
0.2304909324665349
0.241295344635749
0.2601971266964356
0.2866942786427329
0.3234076678371935
0.3753670731585668
0.4483738263707109
0.5510215431978764
0.6168877123148411
0.5737068414826672
0.4038568610799627
0.2263279448750477
0.212437388750783
0.2172279942176223
0.2248944777785258
0.22697617926099
0.2256875682150435
0.2243568576284021
0.2257316017526105
0.230693936895181
0.2424670675865817
0.2620404479420921
0.2895505824208679
0.3287375943209948
0.3824452381425261
0.4615206695528456
0.5679677738140201
0.6098409065325043
0.5469494703777888
0.3867206032168246
0.2199070940478308
0.2121555042527405
0.216824134858147
0.2243241742177045
0.2258281672927397
0.2247096870644091
0.2235147888976673
0.2250927146710634
0.2310175537023014
0.243600279768159
0.2640043574403132
0.2925054120690517
0.3330899335446037
0.3894468348933844
0.4775144112769201
0.5839476887913488
0.6142125620552682
0.538442413126046
0.3725807967306752
0.2125024568007424
0.211663925924159
0.2165105114568293
0.2234783800739715
0.2246634217764299
0.2239299239983243
0.2228141337457468
0.2244766013681799
0.231171696844225
0.2445813341568331
0.2658868509598746
0.2954615176811072
0.3377387123788473
0.3962594421289399
0.4912465824362758
0.5988226254508047
0.622123018164647
0.5367566217129299
0.361881420780025
0.2040395952153817
0.2109249474489418
0.2155677611794668
0.2220362785926867
0.2233638556509803
0.2231328217124738
0.2221438971645107
0.2236916270494526
0.2308834180211845
0.2452676678142168
0.2676449093766341
0.298754009578303
0.3424814104325663
0.4022940983053612
0.5014394435794275
0.612012454284593
0.6293305357554134
0.5357076723484867
0.3552023208501551
0.1986741582680373
0.2101463322108221
0.2144601153350835
0.2207906462694609
0.2221313555426619
0.2223636030507441
0.2216101301465988
0.2231099070894656
0.2305549874434251
0.2455985342237244
0.268823797989582
0.3013589614248201
0.3462663874135493
0.4084057747696664
0.5112410202751065
0.6218737625674876
0.6329765436928066
0.5323480302709511
0.3495179351404408
0.1951087559331961
0.2094514179558951
0.2134102861910705
0.2197552812923715
0.221234445124327
0.2214262269994374
0.2206784956756409
0.2224939760312068
0.2303521817329964
0.2458977399598215
0.269573224362075
0.3030959975550957
0.3493869251696338
0.4142544978381617
0.5178025900079174
0.6285136880680141
0.6367410254398144
0.5283526255620355
0.3429375224646973
0.1908419175195966
0.2087428953509613
0.2122094992534029
0.2186204371901191
0.2202790875988611
0.2203289325148668
0.2196917675505779
0.2220295663668449
0.2303127235919252
0.2462702675844968
0.27047461828467
0.3047130062531976
0.3524459435545211
0.4190757402102678
0.5235291479522219
0.6332229396878124
0.6367450106980777
0.5265427869906371
0.3405838018923353
0.1875392338994986
0.2077982941197388
0.2110552454511861
0.2174281199722081
0.2190806670282503
0.2192890012605544
0.2187308079172309
0.2216801141098461
0.2304061233404061
0.2467862960290975
0.2712258693966839
0.3061667276105744
0.3553685146294783
0.4247690548585304
0.5300281040333646
0.6342104725551405
0.6342319005116489
0.5228276497556121
0.3390490350710841
0.1857611703115528
0.206593771583761
0.209604601826846
0.2160037401131729
0.2179758521526885
0.2184732825011594
0.2179390706077015
0.2211304595580245
0.2300804969441217
0.2472052722544714
0.2718247729299373
0.3072801424378115
0.357840919982309
0.4314533830346408
0.5382674153101215
0.6334555158928549
0.629873200494028
0.5167288095779002
0.3350937166776507
0.1847774017295919
0.2052258084347148
0.2080309244663978
0.2144238567599551
0.2168377931043098
0.2175773137969504
0.2172617493070213
0.2204766209606419
0.2294372871175647
0.2470527175206119
0.2719995767967973
0.3078424072146525
0.3591793788224963
0.4351244367921308
0.5443573401119195
0.6334348604747639
0.6241037312574925
0.512644816638741
0.3329103520225718
0.1843700861749858
0.2040513936502064
0.2068098407048961
0.213141597480002
0.2156669000980008
0.2164784198007192
0.2163328959987146
0.2198135447130945
0.2289537747059894
0.2468992909354053
0.2725440053005729
0.3084285957271988
0.3606140861756943
0.4377804412491266
0.5467732065444194
0.6315115556034914
0.6175922236944321
0.5078982063768162
0.3304472128651728
0.1841131443056213
0.2031175784590761
0.2058578690531048
0.2124015426901602
0.214786447910021
0.2154143689809259
0.2155856034756835
0.2193741459799151
0.2287032208722534
0.2471395477735186
0.273772957310878
0.3094889906002942
0.3621091443814899
0.4401876833779689
0.547376775509516
0.6297938981030043
0.614119736914197
0.5030285209792513
0.3261396876586134
0.1828784300127283
0.2020581347265172
0.2046389066215464
0.2112339248167337
0.2134928623583349
0.2141390371264634
0.2149317415878028
0.2189520432194762
0.2283570085357376
0.2468560407737701
0.2741509361985081
0.3102159336684914
0.362398785917064
0.440317028833233
0.5489186695034423
0.6317102650602419
0.6131410405785135
0.4987834513998791
0.3221377217456134
0.1805324090476189
0.2011379797693439
0.2035750427315864
0.2098931974367902
0.2119899909451522
0.2128300916862672
0.2142021104170474
0.2184773104330463
0.2280867427173957
0.2468612878888065
0.2746745653547986
0.3109221701412774
0.3633588999231205
0.441216398354426
0.5504223241031712
0.6292450326933979
0.6073596388512388
0.4940932549821515
0.3192258612659329
0.1791139787867281
0.1461520229595688
0.1481118952425345
0.1511468407116037
0.1549192836465759
0.1572922821374362
0.1574802796569764
0.1566767903976325
0.1541632386364855
0.1503072994413382
0.1455112826825812
0.1401182800901471
0.1347795982074136
0.1287540001498308
0.1222350576147473
0.1162976236957486
0.1109815659549317
0.1063223138025711
0.1029151980263987
0.1007397131147103
0.1559952511151812
0.1594869559400005
0.161723057277589
0.1637649988622425
0.1643083727813049
0.1621674135136573
0.1591908143220434
0.1543307828989459
0.1477977854778616
0.1410684487236455
0.1342343744760527
0.1281964358956593
0.1232273432089414
0.1187419321464938
0.1157040443316762
0.1145674104797694
0.1150875473619048
0.1171285018047344
0.1200672586099199
0.1690555825055978
0.1736386234095959
0.1747005302229781
0.1740372084153363
0.1717441355573743
0.1670032221270445
0.1607409143858028
0.1529709034438922
0.1446740687940479
0.1369625505284035
0.1301159811550682
0.1250678887439696
0.1225644372700655
0.1230107753423022
0.1258101758671077
0.1302562872934526
0.1353310851510933
0.1406165246726721
0.1464666530133223
0.1850144880960412
0.1892038696275003
0.1867544915654971
0.1815797476758397
0.1749680032156051
0.1666235543302519
0.1573012350387914
0.1473607357911165
0.1380751939045096
0.1304371174192152
0.1261097542390674
0.1254398790235054
0.1282283061533081
0.1344150662841473
0.1414592522686849
0.148644886976652
0.1558709743147813
0.163423325944937
0.1718647252247719
0.1993373140804167
0.200782632326721
0.1938178456011311
0.1840885768620027
0.1729505790408455
0.1607917591314379
0.1496786885541986
0.1395449420167028
0.1323781532990076
0.1287785329297606
0.1296965903946699
0.1349070399656553
0.1432635089611349
0.1539518119602943
0.1640249101971261
0.1731680718611768
0.1819267924779912
0.1903035761930503
0.1986876302974055
0.209121291888993
0.2066351621641159
0.1945682715545711
0.1804583745852838
0.1663712007559617
0.1530297337176409
0.1425108372175303
0.134876540200219
0.1321715907444232
0.1342164135113715
0.1405968982975085
0.1504230558732001
0.1624952983614061
0.1745589617484975
0.1850965728035612
0.1939543158525471
0.2011810953199909
0.20764958864513
0.2136882970639747
0.215649503709358
0.2077634584591886
0.1896866822621893
0.172903472296535
0.1586054095025244
0.1466758447409656
0.1386622624498956
0.1351273146360593
0.1371271664321369
0.1434632379346861
0.1534029883709971
0.1657826953119926
0.1783530635386802
0.1893968118251338
0.1983549842314766
0.2051705995361482
0.2100772950428937
0.2141640384869428
0.2174480775888724
0.2167595951086442
0.203380858378644
0.1826353687130434
0.1650601253381755
0.1517080932603619
0.1422706703760145
0.1376585352668945
0.1382180340975754
0.1437765101266377
0.1526285635982047
0.1642876438893264
0.1773510431492176
0.1885639481075492
0.1977781461560652
0.2046113868172053
0.2091756501963743
0.212070559916483
0.2142304125882606
0.2154988204726973
0.2143586326881206
0.1975329104718125
0.1753769440120787
0.1584661344688136
0.1470202955648548
0.1404455566593916
0.1392534457800627
0.1429700467529296
0.1503246548860311
0.1605696654263914
0.1727108363793477
0.1847890102574468
0.1945777127513508
0.2016495357481786
0.2064271453016297
0.209504183032928
0.2114666794302748
0.2127465823490718
0.212960782439889
0.2089005093255114
0.1901439256007084
0.1683538331988915
0.1536534432859587
0.1442617925098456
0.1405027146974231
0.142068140737474
0.1477243784959267
0.1562496501726833
0.1673375129795361
0.1788749507058535
0.18928063258825
0.1976096289440746
0.2032175235966885
0.2071070293301628
0.2098878516348192
0.2116881796015051
0.2125837141397094
0.2124062417424357
0.2009208729970538
0.1818795835461966
0.1621955843843597
0.1501732410723381
0.1434077973459405
0.1416102898566788
0.1447196122331777
0.151703805458965
0.1612287561884345
0.1722884379683988
0.183261137644192
0.1928925380860511
0.1999489957584238
0.2050175027694042
0.2088425130049134
0.2113968657509371
0.2132917654489348
0.2144825509934963
0.2148599944393015
0.1935092395275987
0.1746867078582149
0.1571788746337379
0.1473599954981606
0.1427105978413013
0.1429722115433234
0.1474064191812955
0.155505844445508
0.1655772442207989
0.176205446212713
0.1873429907414678
0.1965109337052065
0.2028630136498132
0.2079037388920364
0.2116588879459066
0.2145863102074957
0.2172122246766151
0.2194009798723214
0.2212007219199393
0.1866917047572988
0.1683072584134376
0.1532551323006965
0.1459243770213909
0.1429449736906679
0.1448514433566395
0.1504829979974486
0.1592184619933671
0.169645129074087
0.180059655678959
0.1906316734824684
0.1997510850765161
0.2063586277577809
0.211721397019545
0.2160630628860123
0.2199184659882023
0.2239592450210134
0.2278942116786175
0.2316041516317725
0.1805082984131167
0.1635963462232257
0.1507934829514321
0.1453551821882095
0.1441271463611707
0.1468624699252739
0.1535415333263221
0.1632900920706666
0.1739897670030199
0.1841371008808988
0.1942274176241898
0.2033185554055773
0.2104520575176461
0.216382189538195
0.2220493358481479
0.2277672137806928
0.2335114290917537
0.2397109754932901
0.2461120483803237
0.1755567208638436
0.1603951306329615
0.149392811732823
0.1452038475234894
0.1454552435842948
0.149362984379046
0.1567719109672929
0.1667583575434486
0.1773241456850473
0.1877437024742826
0.1981761118689839
0.2075508554440854
0.2154127715615862
0.2224548713678589
0.2294859764344561
0.2375518320911875
0.2460092277374457
0.2551816721973345
0.2666261667229343
0.1715139279066756
0.1575867996498955
0.1484762830643369
0.1454898846945792
0.1469680666823803
0.1520400977912902
0.1601459509743427
0.1703257098075747
0.1804613495891038
0.1914030139105028
0.2021196836879776
0.212221047196921
0.2214281191930313
0.2299421521530187
0.2387948425601852
0.2488783252041195
0.2607554030782131
0.2750059884425267
0.2938424445557897
0.1685870488450931
0.1554731260661544
0.14804008307583
0.1461181584660065
0.1486177304917032
0.1544752745110305
0.1633815881484511
0.1742364945814783
0.1846091544059588
0.1955801743874493
0.2062240258631722
0.2172815673821113
0.2280151645843192
0.2383159777918298
0.249738301485645
0.2626465025639983
0.2785495086266366
0.3000101123857567
0.3256575476141808
0.1664309465702268
0.1543170287695493
0.14851920196145
0.147851146468134
0.1508428975754608
0.1574382147756153
0.1668597791954262
0.1776488267331402
0.188576316164735
0.1996732231057272
0.2106775780681383
0.2229959376164004
0.2352435667095108
0.2478530380019952
0.2619629031236564
0.2786839327087962
0.3007324780150135
0.3314694996612524
0.3587338780065208
0.164602643099514
0.1535611867539919
0.1495048498243207
0.1503000633846075
0.1537770240609078
0.160322266870653
0.170220399586551
0.1812012665396633
0.1923031184323682
0.2037193442048114
0.215606741686148
0.2290870496998697
0.2431009922037294
0.2581049061920064
0.2750147467291868
0.2971334244520694
0.3276235273487283
0.3660085698105015
0.3848268824909936
0.1632673092382453
0.1535319505066256
0.1506522914998894
0.1521679660590325
0.1565757225950667
0.1635884021915138
0.1733798333218322
0.1844935104040025
0.1958792967659318
0.207762841835188
0.2209875080274652
0.2358910845310011
0.2520345615237807
0.2697643901549791
0.2900486657313788
0.3182232787472678
0.3594409482457458
0.4001395689623046
0.4017661201631493
0.1622165847100022
0.1543082418318985
0.1525370008119869
0.1545030050311601
0.1596949826389438
0.1675253768935772
0.1772406436547429
0.1880491089881018
0.1991718034865106
0.2116980008649099
0.2265808828863836
0.2432664317744495
0.2613390636614711
0.2823226050670195
0.3078333991147092
0.3434299043006451
0.3933666149846667
0.4324760269554241
0.4034056289351364
0.1617634616490125
0.1552010466527298
0.1547483086282438
0.1575984733175907
0.1632796876754899
0.1712809637548095
0.1810032014732627
0.191692285963706
0.2028412181432453
0.2159961826515889
0.2320584957103894
0.2505557648232661
0.2706992117720727
0.2947744959217251
0.3255518178831069
0.3716345689173773
0.4310967613436983
0.4659269718255066
0.3782533052433328
0.1618821494523522
0.1561077829166713
0.1571345758269867
0.1608768148611299
0.1663815677645446
0.1744188023012632
0.1841219628966137
0.1946370075173599
0.2064033585643364
0.2204066780230045
0.2376335843184251
0.258118489029308
0.2812559380310342
0.3086821739362297
0.3469049317393887
0.4042228426790511
0.4686145338764534
0.4745435958927674
0.345504748574178
0.1625783470576312
0.1577705866882743
0.1597790941543241
0.1641364016872115
0.1697427620517397
0.1774553294972978
0.1866606115384946
0.1968602508224669
0.2091739465550834
0.2246693259157324
0.2433887879287637
0.2655849740241181
0.2918157191019533
0.3236359257965746
0.3710328445917715
0.4389919524698296
0.4999569597922169
0.4636797639257726
0.3186779781575413
0.1636963013132539
0.1599418049848448
0.1626808372953929
0.1672482840122802
0.1733420040634093
0.1807178021575274
0.1890876305581613
0.199127229745996
0.2120331025623378
0.2289611841640912
0.2496828582816486
0.2736281009411215
0.3022526933067436
0.3407812467574969
0.39715907556049
0.4702409659063443
0.5219803812201489
0.4577789328843336
0.2911428170897063
0.1648453327474784
0.16170667932357
0.1655159908189979
0.1706744965843607
0.1769519886649307
0.1838358537928155
0.1917464511519522
0.2018975722870251
0.215198491633447
0.2330233227801719
0.2553142751584527
0.2814121372748553
0.3120747056361814
0.356915017960683
0.4224090098456957
0.4977057307930433
0.5240657079047907
0.4336202714581337
0.2648674469424429
0.1665178243180342
0.1640209867383447
0.1686218555260021
0.1741938916949009
0.1802574789829392
0.1866510067441338
0.1946484112418738
0.2048204370206127
0.2183143996658139
0.2367228319316419
0.2606644257825097
0.2893061528982395
0.3228173859874118
0.3718987253722333
0.4449977706245401
0.5233639181631339
0.5273578361068079
0.4105686378042451
0.242880885818551
0.1684323416297443
0.1667546990298368
0.1720187577437165
0.1774213443140399
0.1830395553916212
0.189440257167788
0.1972965852123164
0.2073412020958392
0.2211973558330878
0.2402983109911039
0.2660579102151493
0.2966305203783156
0.3344104425501514
0.3897142008011161
0.470979553183419
0.5515867703239814
0.540041595841023
0.4003658730889415
0.2291272610100422
0.170244269224965
0.1693406106576833
0.1749772133601873
0.1801231384488466
0.1856653112185216
0.1920403307383
0.1994254480763635
0.2096387736630072
0.2239746303782193
0.2439575527787846
0.2703870624442524
0.3028344668052519
0.3458520461187395
0.4066608715881017
0.4929211706421413
0.5671054767928077
0.5400885080275897
0.3890864605249729
0.2202071497733945
0.1723018221680111
0.1723821554874373
0.1779106820559814
0.182553767079865
0.1879213790402508
0.19411841317672
0.2013396438934371
0.2119844970423484
0.2265259386311222
0.2472955568205863
0.2748714072001008
0.3102144164570625
0.3581221739790449
0.4213364034116467
0.510748800567265
0.5680075732243677
0.5207097298379525
0.3706948742911548
0.2108382596798479
0.1744131464609977
0.1753322152837959
0.180918113676502
0.1852278089984159
0.1901605939327272
0.1959116575488683
0.2030127785511833
0.2143216264610486
0.2290451900796309
0.2500601214897178
0.2790383690436999
0.3165585028278801
0.3669471704526328
0.4357159911916759
0.5311730229376939
0.5698529188864159
0.5019398138253699
0.3527599562720751
0.2023667447434033
0.1768011944513499
0.1782877629392862
0.184390288301371
0.188174937519656
0.1925164920896863
0.1978054874719337
0.2047837241140494
0.2162885382886216
0.2314892946780825
0.2531233648113152
0.2832642378444809
0.3221473372581167
0.3744246913793968
0.4513516650683284
0.5512946937616001
0.5787095075030758
0.4983310733292259
0.3421827598196783
0.1954753108416246
0.1796802812825551
0.1812834019911806
0.1879844449602827
0.1912462257663844
0.1946449777264325
0.1996066981182488
0.2065335989282866
0.2176224133367189
0.233230651090378
0.2560865613922117
0.2877816574112857
0.3287150261608703
0.3838591470211756
0.4663437509945496
0.5674168884554183
0.591248727860723
0.5002374359686531
0.3346526237235825
0.1920574216193339
0.1822487053912724
0.183770718966635
0.1905607575928209
0.1938291484601959
0.1965265151408158
0.2011974624182859
0.208097495774577
0.2188050465368059
0.2346806698495939
0.2583085248026999
0.2907710967496345
0.3341849657041369
0.39156883414439
0.4783113557574885
0.578902725743289
0.5993554452884912
0.5033631594760495
0.3292160040055745
0.1882054589892635
0.1845086645149491
0.1859863461509502
0.1926440605617989
0.1960689299232481
0.1987514835758693
0.202927874492221
0.209581680363133
0.2201976522814244
0.2366251836228842
0.2607861891881904
0.2937821309678128
0.3392061959907402
0.3971114544739299
0.4872531016557593
0.5887523389504455
0.6070435428005674
0.5072673215800493
0.3255646664617633
0.1841542366200333
0.1866956840992641
0.1883477986924863
0.1951124361318009
0.1985366078240878
0.201206143204755
0.2046691904807792
0.2108919921937108
0.2216510313147389
0.2387428900381977
0.2632759477116143
0.2973868672282669
0.3437055726898725
0.4018995921348189
0.4960461327498608
0.6005818628849268
0.6142395968012667
0.5068144512577826
0.3235492274847029
0.1828727518670284
0.1887858704971129
0.1908107259591578
0.1975074232151393
0.200793445949742
0.2029240154935286
0.2063263106235364
0.2122810031984459
0.2228631491565587
0.2403865549363023
0.265268634040642
0.2995917976517876
0.3469296608296524
0.4078771690372715
0.5049817305855279
0.6098631135542721
0.6190235975555539
0.5066709718624575
0.3233816361077668
0.1830646901980935
0.1911127863649302