/*--------------------------------*- C++ -*----------------------------------*\
| =========                 |                                                 |
| \\      /  F ield         | OpenFOAM: The Open Source CFD Toolbox           |
|  \\    /   O peration     | Version:  2112                                  |
|   \\  /    A nd           | Website:  www.openfoam.com                      |
|    \\/     M anipulation  |                                                 |
\*---------------------------------------------------------------------------*/
FoamFile
{
    version     2.0;
    format      ascii;
    arch        "LSB;label=32;scalar=64";
    class       volSymmTensorField;
    location    "0.006";
    object      tauij_LES;
}
// * * * * * * * * * * * * * * * * * * * * * * * * * * * * * * * * * * * * * // 
 
dimensions      [0 2 -2 0 0 0 0];
 
internalField   nonuniform List<symmTensor> 
13597
(
( 0.1651176417701863 0.0300576178042609 -0.0235919215842609 0.0679204754137793 -0.0206664746759926 0.0709665826374565 )
( 0.1669672469938336 0.029589587799079 -0.0232041002741459 0.0637188606647774 -0.0167796301453592 0.0684111349927364 )
( 0.1703150059046159 0.0268445192537043 -0.020807527071272 0.0560862712669247 -0.0078586324186962 0.0643703263706101 )
( 0.175529434667327 0.0224739794839197 -0.0163030384277285 0.0492212784844902 0.0032906351694468 0.0640807065850609 )
( 0.1803029702732674 0.0180748812777017 -0.0115027929323823 0.0457854095201032 0.0118272120268089 0.0680835755155645 )
( 0.1830568287633492 0.0142143646499559 -0.00611707233192 0.0443729369308007 0.0182531447759384 0.0732888553479413 )
( 0.1847009718942408 0.0100960343820565 -0.0006443212832674 0.0441826700327419 0.0239732577033817 0.0794321611891155 )
( 0.185378388350423 0.0055440892805223 0.0049712671124004 0.0454327557661146 0.0288672060844642 0.0862652350846377 )
( 0.1854224075129963 0.0009244678481094 0.01016989978695 0.0481923999363199 0.0330075186084896 0.0930795619647456 )
( 0.1839694925749473 -0.0032104102998208 0.0142842870809908 0.0521294019042423 0.0363039561077956 0.0993507574355637 )
( 0.1813523331169031 -0.0067729502879776 0.0179278446491814 0.0577013324729506 0.0393374055087832 0.1055092487565826 )
( 0.1790848365757829 -0.0099239558558947 0.0200632710335174 0.0637100462825683 0.0416295273021531 0.1107961241036957 )
( 0.1760068853179705 -0.0124294233611535 0.0211168279572479 0.0692615336438981 0.0428424734595651 0.1144747209384632 )
( 0.1721401597997421 -0.0143335346276332 0.0211738005712418 0.0752550996008519 0.043862380290054 0.1169691320491632 )
( 0.1680526722670415 -0.0153382086594521 0.0198536348973391 0.0811736135012456 0.0446924687896142 0.1187380468464864 )
( 0.1637809173839346 -0.0158727932753993 0.0183505314260715 0.0864142499408001 0.0447690978717009 0.1204618572636011 )
( 0.1597812714942147 -0.016371818772606 0.0167032539912893 0.090680146228446 0.0438526634179912 0.1217532602128129 )
( 0.1555105586390864 -0.0157782641665337 0.0135688467962929 0.093331136305146 0.0425447920932611 0.1226623336183778 )
( 0.1516873455980233 -0.0148319962147241 0.0091632470704996 0.0946284053323682 0.0408929705264685 0.1234270631579377 )
( 0.1619060490435362 0.0364604889618568 -0.0223360744251897 0.0608825979760071 -0.0228937958350599 0.0867298818045459 )
( 0.1620020456208283 0.036416704326187 -0.0200349706242357 0.0552508635010786 -0.0182272329647835 0.0854148624098142 )
( 0.1624933777888481 0.0346124728058634 -0.0131320759958301 0.0469480205205567 -0.0075013839066194 0.0811270219819883 )
( 0.1645214277756236 0.0317896956836267 -0.0039708068848454 0.0429832722097241 0.0041118385053731 0.0814984747153502 )
( 0.1649219637841856 0.0287751626773537 0.0035863147402344 0.0424025427992434 0.0113448440285015 0.0857825420861207 )
( 0.163383315693189 0.0254679617942417 0.0113468443424965 0.0439028094114555 0.0172028634343199 0.0912511970611741 )
( 0.1615811412227092 0.0217657578873017 0.0180361148532866 0.0471430745125874 0.0221900300272475 0.0969738916254877 )
( 0.1585065733114361 0.0178985573011489 0.0238851030172737 0.0520579514284866 0.0261759682004449 0.1034170957186357 )
( 0.1549110348669398 0.0138947907819625 0.0288570578410631 0.0582253520770356 0.0297097731774442 0.1096311634638071 )
( 0.149860806350724 0.0100094848765137 0.0318082413506021 0.0651821518696995 0.0327088422630196 0.1147874540536536 )
( 0.1436144341894058 0.0062128809054757 0.0325951696306389 0.0730506661564186 0.0357945729774024 0.1197766439555533 )
( 0.1380495707508215 0.0019139867563423 0.0308078519224849 0.0806744285170353 0.0384317634060415 0.1235475863115066 )
( 0.1322496488046123 -0.0014807835372408 0.0271249622441839 0.0869437057898572 0.040219762571675 0.1264058686921442 )
( 0.1270860142926126 -0.0042910941175278 0.021574151046064 0.0921410455953961 0.0414674520311519 0.1291571936470115 )
( 0.1236357004186581 -0.006954423554045 0.0148442030575018 0.0965545371581431 0.0421835712470188 0.1319305399948843 )
( 0.1205445800630859 -0.0087139348852227 0.0078351007856409 0.0999381575725898 0.0423254504996172 0.1356007925284489 )
( 0.1184137052661961 -0.0101041382834687 0.0007838629238266 0.1018011287691775 0.041081079006417 0.1392325178389749 )
( 0.117380198566668 -0.0105165977554992 -0.0073737076895893 0.1023530251475112 0.0388283753672994 0.1431399778558092 )
( 0.1170668801680667 -0.0100548524166121 -0.0156989446440619 0.102146963346725 0.0360435293893756 0.1477134527132835 )
( 0.1510675966986068 0.039947042550783 -0.0172578250746508 0.0552535739446215 -0.021848802606641 0.102704084114171 )
( 0.1481258958197241 0.0399679989989759 -0.0115805102331051 0.0499721918833142 -0.0165722073791967 0.1026532430431765 )
( 0.1449181684077973 0.038353721367576 -0.0003438793113248 0.043720915851567 -0.0057178040680482 0.0995151671932278 )
( 0.1417746893085171 0.0351339708107098 0.0109691445842384 0.0434284299633829 0.0047053425127193 0.1013756663250132 )
( 0.1369775966374155 0.0312371314356236 0.0184991389650025 0.0458347401281672 0.010638295044042 0.1069364893117053 )
( 0.1324274588204365 0.0265938804540017 0.0246136444989874 0.0499623897118364 0.0154084026042492 0.1131058439698114 )
( 0.1274895247787461 0.0212090452727237 0.0282451296278286 0.0557459407753438 0.0196777095981555 0.1182817127602506 )
( 0.1217218093986928 0.0157767627846027 0.0294892086010203 0.062841455624195 0.0235066361564897 0.1233677996861809 )
( 0.1166757079487568 0.0103621491278521 0.0282382758168355 0.070283122608402 0.0271821411795767 0.1275114113145115 )
( 0.1122748170159901 0.0047768091020889 0.0242833620851484 0.0777020440806432 0.0302668273138643 0.1305006132683835 )
( 0.1082198403431434 -0.0003878173795349 0.0178483162339541 0.0845697462680966 0.0328399315918534 0.1331113919418538 )
( 0.1056592576978129 -0.0052821216870089 0.0086970626484412 0.0903853996804051 0.0351692601229443 0.135432558987779 )
( 0.1043051492492736 -0.0093610730243066 -0.0027216868235842 0.0948840915608057 0.0367763578070153 0.1379596831763702 )
( 0.1041065998764662 -0.012250316051768 -0.0144931650863972 0.0978134568693568 0.0367969645464556 0.1408993823549721 )
( 0.1055157832441839 -0.0141390930583234 -0.0250947198825898 0.0995346791285491 0.0352419425171367 0.1442333217699487 )
( 0.1072823572202704 -0.0150080637137648 -0.0350769520847487 0.1005063238577002 0.0330982087624555 0.148316380481036 )
( 0.1094528002766238 -0.0151502916061733 -0.0442341602714454 0.100710051999671 0.0298517008689031 0.1524293078509553 )
( 0.1125604972011691 -0.0144681359259113 -0.0531238107339963 0.1001528425546597 0.0253505112255482 0.1564634493920553 )
( 0.1159892294978252 -0.012930530274196 -0.0615041867107185 0.0993200877635803 0.0198336507312855 0.1607696521064379 )
( 0.1367280741032371 0.0405277750469324 -0.006607071347729 0.0531876145591277 -0.0193635112008917 0.116230212889993 )
( 0.131577624154388 0.0399047523765572 0.0022338787136576 0.0496039579992779 -0.0141945142625984 0.1172833439975881 )
( 0.1258133116275341 0.0366301194705958 0.0144354395228244 0.04597138975683 -0.0052845245733624 0.1167936777474309 )
( 0.1198426493627387 0.0309957354733249 0.0241712878920511 0.0482510004139431 0.0032273238170646 0.1208279251692854 )
( 0.1138396155067869 0.0247799915179318 0.0286268102153114 0.0529780445833241 0.0086340775642193 0.1270406417233471 )
( 0.1091027570559515 0.0181117045704029 0.0298559032867664 0.0587443716235982 0.0130063056356082 0.1325914134956009 )
( 0.104901725529487 0.0111128186075242 0.0276713318112564 0.0653305907909682 0.0169291215194555 0.1365955847297917 )
( 0.1017725963819831 0.0043526894269171 0.0225571623849396 0.0724164893071361 0.0206557068225018 0.13994190309896 )
( 0.0998511948399018 -0.0017002647228837 0.0149245706281024 0.0789955688947559 0.0241348304591616 0.1416882385527127 )
( 0.0994987831379411 -0.0071417852611833 0.0050149267437086 0.0845961027084986 0.0272822542605854 0.1425004987512424 )
( 0.1002173979628563 -0.0119757597528821 -0.0070025884659296 0.08898158182617 0.0294997103122699 0.1431122987923579 )
( 0.1024517807127812 -0.0155280379846346 -0.0198887320209566 0.0919990288191615 0.0306123759225051 0.144297081730099 )
( 0.1059384566648415 -0.0176598965136897 -0.0330843724106064 0.0935733970656277 0.0299409737933897 0.1465311670908538 )
( 0.1103861333330562 -0.0184234168549293 -0.0451462107739478 0.0944101884193979 0.0273896605121036 0.1502831001814845 )
( 0.1152257255941471 -0.0177295801270596 -0.0548601128780204 0.0944195993790717 0.0234078423382108 0.154630469127669 )
( 0.1197935931280618 -0.0163260494737896 -0.0628828239653769 0.0941433127378734 0.0185747627590349 0.1587782645227747 )
( 0.1245093740560387 -0.014433990730116 -0.0695526165409723 0.0936635042215011 0.0133444354390061 0.1625391031339159 )
( 0.129811912035689 -0.0116946889518434 -0.0757005938207955 0.0928531192432537 0.007217307223889 0.1666644749880735 )
( 0.1353048412983467 -0.0078827590016245 -0.0812220335835742 0.0920859365959639 -0.0002456958331564 0.1710854164679029 )
( 0.1243846702789657 0.0391267672417443 0.0069084442859583 0.0551085433485515 -0.0170725992820508 0.1276759449078717 )
( 0.1182148289760199 0.0359921569489845 0.0167848643879664 0.0525107761145617 -0.0124057181254562 0.1293625552013027 )
( 0.1117098583754705 0.03006634235865 0.0264493796746408 0.0510641133032302 -0.0049397189767986 0.1318960955676665 )
( 0.1060662903868927 0.0220040404823227 0.0315277193985907 0.0550978229365812 0.0027083332375974 0.1387498860034939 )
( 0.1014241976924105 0.0138736169435314 0.0309209888379944 0.0608796065907776 0.0079579535370038 0.1450567477263073 )
( 0.0982339216232997 0.0065683382193011 0.0265402435863297 0.0669908272944254 0.0128803655213439 0.1496605153160931 )
( 0.0971507629032233 -0.0005957009673429 0.0190463103940953 0.073162208592049 0.0171196952470611 0.1522630015232654 )
( 0.0971270900761601 -0.0069151570545706 0.0091079311565401 0.0791333347519605 0.0215279808621562 0.1537768636217496 )
( 0.0978352155425127 -0.0116799052494121 -0.0021496653662045 0.0836164499009031 0.0253861005423536 0.1540115312146237 )
( 0.1005137621503734 -0.0150722910309419 -0.0144098277028371 0.0865140725190947 0.0279011100146257 0.1536692693550505 )
( 0.1048279786376171 -0.0174681389567624 -0.0275943610306117 0.088325320276784 0.0286576948638384 0.1542626675465456 )
( 0.110389033562078 -0.0183581229645443 -0.0403287801964527 0.0890959383790276 0.0270671963967157 0.1565958444924649 )
( 0.1167783972475662 -0.0172462664304273 -0.0520844481443289 0.0888738283035214 0.0232992037361229 0.1610126132933966 )
( 0.1237903954373031 -0.0146072672001857 -0.0617829549108822 0.0885286463239096 0.0176452124326207 0.166467081728583 )
( 0.1304777245651534 -0.0109556389359567 -0.068836119406172 0.0879754345683772 0.0113265319268231 0.1720376496352077 )
( 0.1366897279163001 -0.0066218849393474 -0.0740417711769533 0.0873763589117194 0.0043333584132079 0.1773095713765341 )
( 0.1425780029415914 -0.001797539248721 -0.0777827651273156 0.0868579691208592 -0.0027878748001065 0.1823182046403666 )
( 0.1485647062304267 0.0035029211510571 -0.0808785499717373 0.086421273047239 -0.0099311337862838 0.1876742376950842 )
( 0.1550205787327573 0.0097896456106892 -0.0828488660704053 0.0863406719097369 -0.0180075652836982 0.1930416750670742 )
( 0.1152754546359328 0.0356061148983885 0.0188629330281478 0.0591523145327728 -0.014621373325865 0.1376943371450259 )
( 0.1085572401483907 0.0301307173113338 0.0272807445411213 0.0571226636911418 -0.0102679068352755 0.1412179589699145 )
( 0.1018818607436245 0.0215501383591264 0.0322525141948476 0.0572173704088087 -0.0030101354884417 0.1464196091822376 )
( 0.0976468364128515 0.0120334628588167 0.0314036426624022 0.0624289288509299 0.0047573967652699 0.1549505516105778 )
( 0.0949894196198622 0.0037196604945597 0.0259543687697674 0.0681720395349376 0.0107192662196112 0.160730576360282 )
( 0.0939607184673953 -0.0030515753163181 0.0173510481025762 0.0739658101136715 0.0166349930403949 0.1640748468380649 )
( 0.0944270531738156 -0.0086093418376895 0.0068583244479527 0.0791152784514891 0.0219464548782217 0.1657778181850413 )
( 0.0959281230897394 -0.0126933209526906 -0.0053037321334181 0.083214749402271 0.0270773147137483 0.1666888297224608 )
( 0.0988923181568623 -0.0152048990484695 -0.0181018686125516 0.0855366999870337 0.0308172642183284 0.1675399243407319 )
( 0.1037263387742422 -0.0160203901695787 -0.0306621593955203 0.086440017983749 0.0317528420132908 0.1688067008800488 )
( 0.1101720626519952 -0.0149983278049685 -0.0422205473829953 0.0863103133851971 0.0292855356285277 0.1708698376261146 )
( 0.1176591425428256 -0.0121308059170698 -0.0529964236656131 0.0853630287115025 0.0237887409264221 0.1753770539815006 )
( 0.1256744462254811 -0.0075671266504237 -0.0622339583562551 0.0844790521616434 0.0168766290243567 0.1820406914860443 )
( 0.1332706967943988 -0.001770077922235 -0.0685369992608395 0.0837063671846156 0.0086439215901266 0.1879048536719076 )
( 0.1402462685207073 0.004507774336594 -0.0725566748834912 0.0833327302635648 0.0003852766451804 0.1942231294991306 )
( 0.1466863315065988 0.0110524627844526 -0.0750575526131819 0.0832130366923627 -0.0072760760297757 0.200224356941499 )
( 0.1524344110443431 0.0179681462698689 -0.0762248689221107 0.0833265007487012 -0.0147869883237297 0.2054962039651629 )
( 0.1577602516217874 0.0250586852691274 -0.0763396662694746 0.0837947064201561 -0.0219241846547293 0.2099625756995626 )
( 0.1637328538774717 0.0328569910228584 -0.0755391383372606 0.084747941233112 -0.0292845133798256 0.214052042178207 )
( 0.107195652723678 0.0303741597267024 0.0270576536822802 0.0637356210254113 -0.0115886140638539 0.1484050390447023 )
( 0.1007982149457557 0.0233698234186033 0.0318342365784978 0.0618851262408888 -0.0069186192238297 0.1546446585814977 )
( 0.0952844852982997 0.0133253782500341 0.0319162641525018 0.0631754799105224 0.0008640834476914 0.1622437285618394 )
( 0.0917189725556748 0.0038162796922098 0.0261739031992187 0.0690577033982623 0.0094339239330038 0.1702337112159389 )
( 0.0901821242492857 -0.0031259792322078 0.0170826379466506 0.0746322700388041 0.0167406107117566 0.1749725761321018 )
( 0.0901634056468386 -0.0086979767311671 0.0057507953251852 0.0799415938030086 0.0239767815921514 0.1777975161106041 )
( 0.0910515953605796 -0.0121781072846171 -0.0067478839457322 0.0836191078040617 0.0301297536620403 0.1796186682347398 )
( 0.0940224236471374 -0.0135587617615656 -0.0188562130628026 0.0856923496769412 0.0344413669429138 0.1810498661451718 )
( 0.0989279970927576 -0.0131210688170399 -0.0306754396012317 0.0863068924793655 0.0363983259369144 0.18327854001767 )
( 0.1052440259935354 -0.0109042651645132 -0.0417053789646747 0.0855609954143368 0.0346888618608707 0.18630716796324 )
( 0.1128427624335746 -0.0067775322740772 -0.0510114467324897 0.0842669947215262 0.0290909415008141 0.1899726818192945 )
( 0.1211734816657215 -0.0006055118140395 -0.0590559659211357 0.082778469010642 0.0203424271648863 0.1960415702032112 )
( 0.1294479836113613 0.0067710440659803 -0.0649896526510999 0.0818293413673704 0.0106050154629556 0.2029876093629476 )
( 0.1366784537595334 0.0147724450734858 -0.068295935213477 0.0814929436251023 0.0008525167723269 0.2087984418413777 )
( 0.1432830205354492 0.0229031854349918 -0.0699890658032679 0.0819482419317205 -0.0083009162477264 0.2145930551771916 )
( 0.1491073944055835 0.0307780342802606 -0.0704525042688862 0.0826933456128099 -0.0159856032364261 0.2194362392937867 )
( 0.1544429542234895 0.0387744732988366 -0.0698327238014813 0.0838730942398265 -0.0230025959724429 0.2227949095114486 )
( 0.1597280759733122 0.047120417791632 -0.0682824282929313 0.085501931315203 -0.0296669180696732 0.2247704973539534 )
( 0.1655017937963396 0.0558851351420133 -0.0658850840838077 0.0876371556454239 -0.0357968802951802 0.2255366467080445 )
( 0.1007590545629377 0.0249274212475842 0.0304923809161713 0.0686143899504768 -0.0080137337924192 0.1604362225878915 )
( 0.0944096630248493 0.0170307646792804 0.0309194953290655 0.0668293177894331 -0.0022166313984944 0.1687739872991701 )
( 0.0894508124801419 0.0067670325107732 0.0267652742744798 0.0691137198859964 0.0069025962687566 0.1772839336480722 )
( 0.0867126795813431 -0.0019701047256064 0.0178196471897844 0.0755688929161063 0.0167835492141459 0.1843130800640571 )
( 0.085448046351982 -0.0073157594448319 0.0064590809677035 0.0809184971365638 0.0255623782622639 0.1887527270185157 )
( 0.0854611362304045 -0.0100636645445348 -0.0061833457210934 0.0847313852501136 0.0333097384626872 0.191472495317817 )
( 0.087807089637482 -0.011205693617979 -0.0186166154491799 0.0869232064744768 0.0389675986527345 0.1939912996548921 )
( 0.0922071828230818 -0.0105834587625867 -0.0293190229245179 0.0877981172055726 0.0416865740413845 0.1971306139699805 )
( 0.0977524744060743 -0.0073271942431545 -0.038756677349221 0.0870334212520166 0.0405176171614913 0.2003582784843013 )
( 0.1048680661893873 -0.0023000963101149 -0.0474992942726339 0.0850342038525245 0.0353901001560274 0.2040924179202919 )
( 0.1130736931964109 0.0045164694534647 -0.0545804499883313 0.0831524300824921 0.026997062164155 0.2089597604849248 )
( 0.1218069384448834 0.012946892421071 -0.0600690405219865 0.0819803046066749 0.0159918784885801 0.2151450623051084 )
( 0.129781838440691 0.0222642271184046 -0.0632435995854603 0.0816587311193826 0.0042488023274068 0.2204047497727146 )
( 0.1367185470058909 0.0317324191085448 -0.0642206168893162 0.082449475200246 -0.0062593881345062 0.2245479885420599 )
( 0.1429350613384461 0.0407112317222046 -0.0643113292161115 0.0840285537091901 -0.0151809280052386 0.2281719352181836 )
( 0.1483106394854186 0.0495666543395825 -0.0633027046985415 0.0859510617570126 -0.0226791455926107 0.2303070079999421 )
( 0.1538186491229402 0.0584696980635635 -0.0614585178869052 0.0884691693554272 -0.0291223380796608 0.2306177991331769 )
( 0.1597378578090632 0.0677023920755968 -0.0589354313457801 0.0914006705583496 -0.0348781358489168 0.2291577472462497 )
( 0.166185546171841 0.0772246214978655 -0.0554618728391648 0.0948242489310645 -0.0396316430676986 0.2260751960756201 )
( 0.0944519407419727 0.0200879104570969 0.0292873149357503 0.0734992938981357 -0.0033094137223871 0.1728715257882575 )
( 0.0874581527037871 0.0120638927199972 0.0259155837916387 0.0719184232630489 0.0040803963843109 0.1820627438949632 )
( 0.0827271924879345 0.0020853023415086 0.0184605966831167 0.0749711832649383 0.0148221396878375 0.1905591563203109 )
( 0.080646747595463 -0.005019325999448 0.0077018230939469 0.0815362225842171 0.0260874456851768 0.197300283321381 )
( 0.08015312411418 -0.0082819762958286 -0.004077815138318 0.0864683649019288 0.0356448651886629 0.2018873355184015 )
( 0.0811180002291976 -0.008870347572013 -0.0157562611152507 0.0891859760126049 0.0425828072563612 0.205470591655601 )
( 0.0845803712033641 -0.0076956292096455 -0.0261976356893325 0.0898556294478455 0.04638819233748 0.2087489083917759 )
( 0.0897609836371248 -0.0048056881756737 -0.0351078311009117 0.0894616202148319 0.0466544472111983 0.2120865053925858 )
( 0.0957925428924055 0.0004146958330377 -0.0424324308380818 0.0878368611575661 0.0426168146319089 0.215811002021883 )
( 0.1036176364023555 0.0077654161387731 -0.0485961836469664 0.0854462588471461 0.0345195747280851 0.2199824873689518 )
( 0.1120478431868459 0.0166943660271573 -0.053621902145969 0.0835326369806314 0.023073896493504 0.2243042603803904 )
( 0.120481254756664 0.0263651241360612 -0.0570092692638509 0.083169301500335 0.0104042827003361 0.2290791921722014 )
( 0.1284762161539528 0.0369056355043488 -0.0583658871829863 0.0842800045230354 -0.0023083478522938 0.2322200736276919 )
( 0.1356320447502209 0.0474881132388806 -0.058199073563907 0.0865373872257656 -0.0129682613249433 0.2338907090697596 )
( 0.1422397802237457 0.0571964861104862 -0.0570344857858468 0.089392523373699 -0.0212531678916741 0.2346749809591896 )
( 0.1480559205320729 0.066864385351376 -0.0549886061797984 0.0927981751576211 -0.0282714553140164 0.2337777074961605 )
( 0.1540259845302473 0.0766014413367627 -0.0523707087695289 0.0968264814326407 -0.0339469863416583 0.2306388102686032 )
( 0.1611079542159464 0.0866576286433679 -0.0491869509138943 0.1012977262106342 -0.0386260588311301 0.2258836955040074 )
( 0.1691109654679803 0.0970805733002068 -0.0453627493582335 0.106065658282583 -0.0420610966458221 0.2195467967215749 )
( 0.0878340534517671 0.0163075154974881 0.0247503919274056 0.077584122473043 0.0032455760771803 0.1858052768226772 )
( 0.0805182387692124 0.0078735212522081 0.0187365194377453 0.0765600179893655 0.0119658795408154 0.1948779897540311 )
( 0.0759232983099178 -0.0008366149828825 0.0093781846765061 0.0805508716881495 0.0241782838226753 0.2026963753517311 )
( 0.0743028546022696 -0.0053970013174583 -0.001549155037736 0.086839308353458 0.0357713377504056 0.2097034261924554 )
( 0.0747844838972738 -0.0065987490495304 -0.0124434277076694 0.0907611505477039 0.0443762016082969 0.2144739236791487 )
( 0.0767968489519291 -0.0057895508904964 -0.0219781667424355 0.0926375106995875 0.0500524538815951 0.2185523386018847 )
( 0.0808231963942953 -0.0027091048649463 -0.0299884031811999 0.0925096403626136 0.0518338216319643 0.2219974063347173 )
( 0.0868822811108336 0.0022549897975988 -0.0370070246941205 0.0911495572023654 0.0497687318444153 0.2257611150986776 )
( 0.093488780361829 0.0087797859723579 -0.0426816669767635 0.0890055593202471 0.0434709138486686 0.2297212854730302 )
( 0.1014971038569742 0.0175160394638033 -0.0468662179446463 0.0867071018877046 0.0324451239007197 0.233173967911161 )
( 0.1106000479607475 0.0277829213525633 -0.0501802030894149 0.0855824834436506 0.0185227675648828 0.235707914348602 )
( 0.1192126390662988 0.0386088541728907 -0.0519606239816584 0.086480325259858 0.004427837449282 0.2375769472787157 )
( 0.1273929746440305 0.0501029303814076 -0.0521876561923935 0.0893470054892777 -0.0083775831479957 0.2387342500155279 )
( 0.1349843292761845 0.0613784360901911 -0.0513858499224687 0.0931941232584549 -0.0187042518476331 0.2381536839236376 )
( 0.1418949953432899 0.0719499042182109 -0.049257359908971 0.0976530303703051 -0.0265812061180447 0.2357500321827317 )
( 0.148532294437729 0.0824627046199716 -0.0464990546214976 0.1028247531013141 -0.0329326282141699 0.231761025777618 )
( 0.1557818256052384 0.0933254189701198 -0.0435751387552371 0.108630145958228 -0.0378240997635672 0.2258336195416879 )
( 0.1646021827317656 0.1045440106636557 -0.0403519832761221 0.1146924361388524 -0.0413886033490373 0.2184621005289341 )
( 0.1749608753313407 0.1161375159492564 -0.0367439484558465 0.1206591335230501 -0.0435749524847058 0.2096615432382099 )
( 0.0812366840278123 0.0128118199713852 0.0192217629286865 0.0809554629862151 0.0098943802652412 0.1978628174934486 )
( 0.0738731748984903 0.0052677003821517 0.0114124639727227 0.0805741221283563 0.0200256497772104 0.2052765442349165 )
( 0.0694310264083111 -0.0016873531881326 0.0012103882817042 0.085749497704384 0.0337471348813972 0.213796513149209 )
( 0.0686700540560356 -0.0044265881549171 -0.0085486902286591 0.0918425914978148 0.0444757633636884 0.2211604294497061 )
( 0.0698000903984166 -0.0042859650393135 -0.017668036007804 0.0947494839809238 0.0518306121462548 0.2263391468515695 )
( 0.0727340796224592 -0.0017098701498858 -0.0251777824313732 0.0957572929234026 0.0560155490033721 0.2308740240528807 )
( 0.0777366162167035 0.0027995469998362 -0.0310615984039217 0.0952336577597342 0.0559444234442925 0.2344242247345663 )
( 0.0843906074776004 0.0087367126482878 -0.0360815201734605 0.0933232447895187 0.0519354502777774 0.2383785758815541 )
( 0.091992116574652 0.0163313204650233 -0.0401241461406051 0.0909834659558379 0.0427597041611944 0.2410942504635463 )
( 0.0997184644380559 0.0259405844780082 -0.0431358490957281 0.089125552071048 0.029098943445094 0.2429031943991372 )
( 0.1083590638338427 0.037107762548782 -0.0451418127867249 0.089121586091668 0.0137003982684081 0.2432914101557064 )
( 0.11771917110891 0.0493742858200978 -0.0459123959154154 0.0916951338990727 -0.0015495656213704 0.2425839497203327 )
( 0.126243853489929 0.0616689717407472 -0.0453861698853547 0.0962333030059031 -0.0141769810847597 0.2411310856613519 )
( 0.134532277853355 0.0736583978737332 -0.0439783122378512 0.1019129712942873 -0.0238842476405111 0.2377246925893206 )
( 0.142387965816404 0.0854389775959606 -0.0417070056269711 0.1084472442964301 -0.0312690102123231 0.2326638608100205 )
( 0.1503576809762043 0.0972498739199064 -0.0387620235781694 0.1156989416528163 -0.0369404486817847 0.2260146883337996 )
( 0.1595944118813664 0.1094848039768597 -0.0358277809979052 0.1234778684939566 -0.0410447219580373 0.2181451099415745 )
( 0.1705721475444049 0.1220648061174582 -0.0331955233991503 0.1310318176714765 -0.0435748321546511 0.2089554229555878 )
( 0.1838223347158967 0.1355211424948579 -0.0305807482912119 0.1382933952298631 -0.0447867892744097 0.1983054884994141 )
( 0.0734580980149807 0.0100340954475837 0.0130432838139202 0.0841336924050917 0.016417470226621 0.2073839526719792 )
( 0.066359966542229 0.0041950236773219 0.0044285321250349 0.0846006351766672 0.0279568699438754 0.2135824878852113 )
( 0.0630380637805212 -0.0011238899146483 -0.0051436586571515 0.0905792501287199 0.0422375451883491 0.2233373547122568 )
( 0.0631558494708444 -0.00251531614269 -0.0132244769731485 0.0960905294453489 0.0519860739706167 0.2316811948908894 )
( 0.0653108788839111 -0.0011246178283721 -0.0202289584599785 0.0984786200730354 0.0582930378126169 0.2370371184442374 )
( 0.0696546975767875 0.0025403058511967 -0.0256642060370437 0.0987014213188097 0.0604949318941662 0.2416752723877172 )
( 0.0755082180847277 0.0078144150472915 -0.0300477562100231 0.097382030432396 0.0583487480413501 0.2453753517443054 )
( 0.0822812415487505 0.0145503508217503 -0.0336623251168087 0.0953015192394416 0.0518727496754807 0.2480398371012955 )
( 0.090063051451935 0.0231132299091694 -0.0363181446403388 0.09322292450109 0.0398400136442256 0.2487827936011624 )
( 0.0977643294654879 0.0334243764635733 -0.0381084371966418 0.0922952737498214 0.0245031524195044 0.2486045154710362 )
( 0.1063847267666745 0.0453281007593547 -0.0391822220682384 0.0938774846843659 0.0082561497636273 0.2470585873843323 )
( 0.1159933853948958 0.0585242417583033 -0.0393320835378927 0.0984811629514854 -0.0071459520977007 0.244473283206065 )
( 0.125234538103658 0.0719280205545698 -0.0384118939433588 0.1050314521572475 -0.0194777923972627 0.2400722929143517 )
( 0.1348546445114744 0.0854517719621741 -0.0370283598072829 0.1129947527093574 -0.0288164911638642 0.233808076976332 )
( 0.1444318050383496 0.0989798528001387 -0.0349967732401691 0.1221276194956361 -0.035711412381893 0.2265714230563938 )
( 0.1540781262913314 0.1122090580777865 -0.0325392213431473 0.1315943170315062 -0.0405191376202177 0.2182898383485917 )
( 0.1650354917917678 0.1257665863601901 -0.030260952822942 0.141168396956578 -0.0437699846671298 0.2089855620452492 )
( 0.1787679269256529 0.1403804958826393 -0.0283559602150556 0.1504000932285376 -0.0454988837782997 0.1985038815715679 )
( 0.195955692080864 0.1563821779111991 -0.0267128600969693 0.1591104754282583 -0.0457844810698654 0.1869014247713457 )
( 0.0652824578284287 0.0085087225364865 0.006902196440521 0.0878625651460111 0.0236120222411827 0.215365832106072 )
( 0.0588676840085393 0.0036876207176316 -0.0009485274661328 0.0890510955516043 0.0356598586183332 0.2226901412054724 )
( 0.0573320725676911 0.0001510987326635 -0.0088698929985439 0.0951132546097114 0.0495076408717244 0.232903278333508 )
( 0.0583532155850985 0.000424376690129 -0.0154051270897589 0.0996121765092175 0.0579656783535188 0.2408790910626757 )
( 0.0619161894994102 0.0026592558942421 -0.0207238683632529 0.1014514719597139 0.0628677625593818 0.2463380552566657 )
( 0.067563448513799 0.0068288589926265 -0.0246478626084634 0.1010868899940023 0.0634013341710737 0.2502635506622617 )
( 0.0738609209255651 0.012557974305094 -0.0277419812388851 0.0993787777832175 0.0590325735055881 0.2533961141841208 )
( 0.0806648167760292 0.0199862736142591 -0.029900626511903 0.0975259797027081 0.049866495711641 0.2549555905360092 )
( 0.0881918432248044 0.0292714031228365 -0.0314402415858694 0.0960973602117094 0.0359244403431744 0.2546408898984906 )
( 0.0961677018762693 0.0402095902268121 -0.0326439762931327 0.0963339593270692 0.0193866208135243 0.2526022566498812 )
( 0.1055071170186301 0.0530979057221048 -0.0334458993698062 0.1000364356055054 0.0024407128660046 0.2485342974433504 )
( 0.1152960509320781 0.0671016261912392 -0.0333510943795998 0.1068965706985442 -0.0125669502982736 0.2435430047403021 )
( 0.1254391530590237 0.08200677817189 -0.0323867816564555 0.1160228072456859 -0.0246008940583475 0.236687635852797 )
( 0.1362967076715524 0.0973803293732544 -0.0311562736879247 0.1268544739720185 -0.0335480878740891 0.2283496771127925 )
( 0.1469014605967876 0.1121091339890695 -0.029460952944727 0.1384110706631217 -0.0395154216904707 0.2196502768804586 )
( 0.1582568902567123 0.1267769976076765 -0.0279299359946222 0.1499044540502524 -0.0434342340040551 0.2101010431503247 )