/*--------------------------------*- C++ -*----------------------------------*\
| =========                 |                                                 |
| \\      /  F ield         | OpenFOAM: The Open Source CFD Toolbox           |
|  \\    /   O peration     | Version:  2112                                  |
|   \\  /    A nd           | Website:  www.openfoam.com                      |
|    \\/     M anipulation  |                                                 |
\*---------------------------------------------------------------------------*/
FoamFile
{
    version     2.0;
    format      ascii;
    arch        "LSB;label=32;scalar=64";
    class       volScalarField;
    location    "0.0051";
    object      k_LES;
}
// * * * * * * * * * * * * * * * * * * * * * * * * * * * * * * * * * * * * * // 
 
dimensions      [0 2 -2 0 0 0 0];
 
internalField   nonuniform List<scalar> 
13597
(
0.1599783023751983
0.1574612254449796
0.151789134667629
0.1472357522881412
0.1452810471542852
0.1427647971106283
0.1396106553031696
0.1369011856576534
0.1335650320199266
0.129780690479433
0.1260595389012851
0.1225919418610533
0.1191693920752998
0.1157713855476782
0.1127947504899843
0.1105894071636041
0.1092232515798818
0.1081048570607667
0.1076347225099443
0.1690988975256465
0.1671672584524747
0.1615842923995151
0.1593587430055306
0.1581704389430025
0.1568238248703512
0.1548015004100341
0.1525127996550925
0.1497523933747869
0.1460568590249315
0.1418184255660177
0.1381449058750836
0.1341149923753543
0.1300919664076359
0.1275195971637311
0.1256977725019606
0.1243793475231025
0.1237760604855492
0.1243765712128367
0.1771962832117831
0.1759153140093698
0.1715776043121236
0.1714050670959895
0.1714999482676016
0.1707893534223606
0.1691751486751755
0.1673630538751594
0.1640118226336169
0.1595157229537477
0.1540853954282453
0.1489421529603215
0.1440573534825603
0.1398303114352634
0.1374557096067819
0.1364034262386844
0.136226185608325
0.1367094416986074
0.1380225563422499
0.1825739230902047
0.1814661199871043
0.1785945803905805
0.1800122526311171
0.1810086375099926
0.1801526992753891
0.1773112846160066
0.1741140872981414
0.1688767585123549
0.1626729271638513
0.1553486174203544
0.1488982122464955
0.144241252178432
0.1419103894687458
0.1421590324471467
0.1437519893934066
0.1459641983541554
0.1491431506334702
0.1533512420848958
0.1861265777794457
0.1836674169690295
0.1821589563173163
0.1857858702837105
0.1864255540391525
0.1848747001036342
0.1808257383429908
0.1750540073097677
0.1684483192206399
0.1615717589270568
0.1556789904540656
0.1521850164056041
0.1515076684338042
0.1535964188130708
0.1573363057418556
0.1616740361978569
0.1659985610858115
0.1707487410296994
0.1758589564486247
0.1877431571588329
0.1849752016412522
0.1843196053134162
0.1887668210827161
0.1886800163521837
0.1860354333202434
0.1817964433313988
0.1756546415614785
0.1700138563806972
0.1657227224218007
0.1636876375702415
0.164248347469577
0.166723367959708
0.1701771615516663
0.1745182550996201
0.1782631248309434
0.1814853900705129
0.1840808949521272
0.1862620728048627
0.1889126198480388
0.1869145511070442
0.1878112556436559
0.1911109756340064
0.1905827294874474
0.1879217732013164
0.1836194140460543
0.1792928559781798
0.1762829761785462
0.1744496234516077
0.1739078750797262
0.1757111349978391
0.178479886018556
0.1806454949325583
0.1826910614785614
0.1838788353119868
0.1840317369337932
0.1834558625219562
0.1821737348321273
0.1910189715644082
0.189597773918014
0.1917133344879923
0.1943885513847601
0.1936521090499023
0.1914747661437391
0.1884976604141019
0.1858873307135566
0.184020448744397
0.1822107656820124
0.1811920554642698
0.1818822017347064
0.1824054682067453
0.1820289806318691
0.1813203624336848
0.1799859251898873
0.1776518049053232
0.174761375134165
0.171503013675574
0.1936216941847921
0.1929540787598375
0.195525340885666
0.1978072709326643
0.1971867450217053
0.1964927915177423
0.1946618694780533
0.1916692784247246
0.1891950659242751
0.18644752740512
0.1839782024566919
0.1821395428539688
0.179832908460443
0.1771047461230777
0.1743272663846022
0.1713514714775562
0.167690231725455
0.1640827151226293
0.1606268924082171
0.1970952428296087
0.1967007583101756
0.1989663792547356
0.2015720681887366
0.2019933980491943
0.2013462199354618
0.199033779582002
0.1955441863773465
0.1912476574332604
0.1867105355004239
0.1821431457518647
0.1775268192875073
0.1734543706638177
0.1696435802019767
0.1658449061061033
0.1622069154007056
0.1585548833553759
0.1553014085163391
0.1525914996936669
0.2007826917883469
0.2001567322658336
0.2026276758519992
0.2053208173496176
0.2056874122907895
0.2037968421603154
0.200827111898414
0.1965930345290258
0.1900418302858358
0.1837020091122885
0.1772250933485182
0.1709215407397284
0.1660780472211314
0.1617378745115164
0.1578839617640292
0.1545052411673028
0.1518040139995572
0.1496829919998017
0.1482415592787175
0.2039912092905429
0.203407678446197
0.2065820503292808
0.2088597085500598
0.2083314038481596
0.2052880665885578
0.2005606720145222
0.1936310171249348
0.1856646569264688
0.1779583593325935
0.1703094990421892
0.1638652766415525
0.1588338576826526
0.1548302217548692
0.151540508679684
0.1490636754026062
0.1476468395706917
0.1469202232195397
0.1468578062150101
0.2070533488153409
0.206466138236204
0.2100630187356779
0.211339783958741
0.210141512000799
0.2056144087285108
0.1984182576426199
0.1891631387244099
0.1804083710469965
0.171812973537828
0.163365007490202
0.1574332164964668
0.1527944914323324
0.149507132318291
0.1474960164186973
0.1461402270667636
0.1459343937122341
0.1465369036267194
0.14753757121719
0.2107380590369917
0.209280809476875
0.2120765336379511
0.2121622577923439
0.2093121721920932
0.2030094398257186
0.1944523434987279
0.1845105905310747
0.1746615500795108
0.1655913577120155
0.1572661414450609
0.1518151428103241
0.1482832024224929
0.1461096083380941
0.1453465022551456
0.14522909118209
0.1462430480060462
0.1479376596636934
0.149982751687852
0.2138352758053027
0.2111878202347786
0.2135303805456228
0.211992342832812
0.2072328091621843
0.1992014850450326
0.1891603318591138
0.1785823110329362
0.1686213982705387
0.1596499292630605
0.15189980066002
0.1473703115007109
0.1451925082623507
0.1442160560299802
0.144589348842974
0.1458141879165562
0.1479625589311975
0.1508217681966275
0.155595642672878
0.2157568626805429
0.2121137942583317
0.2136322234428713
0.2109169361325176
0.2046875178822489
0.1954122543704812
0.1846403730361915
0.1732678997186763
0.162852455416669
0.1537505471281091
0.1474120852926481
0.1444527058358501
0.1431640780570942
0.1433420645516279
0.1448973747267235
0.1473396750595043
0.1507762918815201
0.1561364868658795
0.1658745922320945
0.2168378358369433
0.2124478167000293
0.2123081252743301
0.2088789796924634
0.2014539208782809
0.191110336235648
0.1800203625860066
0.1686561642102426
0.1577151960080066
0.149049154976297
0.1440286353664477
0.1422402838857824
0.1420920514771103
0.1434124454083287
0.1461785674746412
0.1498024356910646
0.1552631602156421
0.1650088678133233
0.1797912491574546
0.2176733140995022
0.2126112188162689
0.2108018031704189
0.2062918120550521
0.1979463279793281
0.186756654250732
0.1754042946889785
0.1637427651419545
0.1533130169467227
0.1458982449883774
0.1413691228656065
0.1404000445752377
0.1417152912047426
0.1441694111476866
0.1481570497733858
0.1534708446123196
0.1622063789867454
0.1770148674109305
0.1920865744635326
0.21806853738193
0.2118151220774015
0.2089084416120872
0.2034602378233593
0.1942049864679577
0.1825128199904979
0.1710278004333676
0.1589918384028989
0.1492866571952221
0.1429621828412285
0.1393169155153557
0.1395243635305233
0.142034643691553
0.1458030130693645
0.1510560288217282
0.1588348047165129
0.1722095726291244
0.1912305952507975
0.2006181379206476
0.2178023957229834
0.2102528805886884
0.2065689125121521
0.1999541541234434
0.1898117882626432
0.177964437499135
0.1665741588780026
0.1549305677326811
0.1459196842921287
0.1403641500906224
0.1375889165956051
0.1391345122286178
0.1430165664842796
0.1478834825169901
0.1551918114690912
0.166140606109013
0.1841454598195991
0.204925553870303
0.2044512864432013
0.2179684525053985
0.2094126498019212
0.2043696084200253
0.1963228714735337
0.1853740838598179
0.1733081750758881
0.1624516965951571
0.1519304937761655
0.1432515763719391
0.1381369628101712
0.1365427373339371
0.1392509032019125
0.1441566233272456
0.1499644357245015
0.15985328025985
0.1755095339290479
0.1974139752951872
0.2162345251186977
0.1984173863113557
0.2182710454786224
0.2081146149201368
0.2018215005431869
0.1932177703254638
0.1817220676053342
0.169453272005913
0.158714352636133
0.1488612135001633
0.1406281369779873
0.1364133426616308
0.13612549660725
0.1394693072297751
0.1451904318139136
0.1528965006750433
0.1651987931263641
0.1856273598550964
0.2106049886871933
0.2246136400220774
0.1808586835604851
0.217578637727209
0.2059187011800228
0.1989144701034473
0.1897938849312104
0.1780637716026901
0.1662876885860922
0.1560242972769004
0.1462482530325533
0.1383883474264892
0.135228489746389
0.1359753619631814
0.1399069155341598
0.1465328569917906
0.1563184560637763
0.172221512317036
0.1965918351569456
0.2225830209051171
0.2242026906930807
0.1628845284376453
0.2164180098051458
0.2035060125633957
0.1961679706705811
0.1867015702220399
0.1746543421625374
0.1632377157530617
0.1536624625316485
0.1440858952804714
0.136751214860933
0.1345996760713673
0.1362212639771834
0.1409825856791786
0.1486824354487191
0.1605753971948751
0.1804762005827561
0.2083236160010686
0.2331391100130911
0.2168003846377376
0.1461444905947519
0.215455002840411
0.2015202879256222
0.1934540030851461
0.1838434324219634
0.1715974956681863
0.1602714529387477
0.1506533844223075
0.1415408438834047
0.1354148738210664
0.1339911916548777
0.1364646787042365
0.1420573707118538
0.1509910110901128
0.1659909982260319
0.1891174693937778
0.2191678024116868
0.2396296774061698
0.2077183764653224
0.1281916859968332
0.2148302712256694
0.1999596403505607
0.1906741070095184
0.1808556977237195
0.1688833520224057
0.1581121110302787
0.1481596234332108
0.1393334998070861
0.1344072777289493
0.1334654697284398
0.136536594012544
0.1430679779454323
0.1535411380347598
0.1712430505410383
0.1971534534740721
0.2285258570362883
0.2386127013945327
0.1946405896424803
0.1151433466659148
0.2137207659250838
0.1984138253901197
0.1881824866034854
0.1784095334428775
0.1666855077464306
0.1561965938001871
0.146262147208797
0.1377508521754428
0.1335653852007824
0.1329045461504528
0.1366108427969105
0.1443159764768503
0.1562111758561177
0.1759381666184972
0.2049786051284167
0.2361700010110926
0.2358591596485553
0.1810715662859128
0.1042220414216564
0.2119809866376606
0.1965027502060926
0.1860479614757434
0.17646187690481
0.1650684354949459
0.1546233973266013
0.1450501546358513
0.1369703143885221
0.132822155782271
0.132420751533658
0.1371610736581852
0.1457566167756772
0.1587613035199423
0.1806363480522093
0.2134037425015472
0.2433406161715844
0.235978777919931
0.1711825404683988
0.0950854561066593
0.2103193847274536
0.1950194187882972
0.1843813736294731
0.1744854822326852
0.1636937985097968
0.1533250516265069
0.1440356996141332
0.1363055206300646
0.1321874634190732
0.1324592738825922
0.1378231587412266
0.1470935645073131
0.1621132644156472
0.1855544481818612
0.2200657102131802
0.2477928709265252
0.2334657830595779
0.1633113644096498
0.0896129739783835
0.2088099187677516
0.1936543719251048
0.1828143762005378
0.1726984644041149
0.1621430576380405
0.151582629241357
0.1425196394008072
0.1351271107653595
0.1314870066249324
0.1325067305555895
0.1381969663847295
0.1483589956505102
0.1647008543632422
0.1901831266035313
0.2255702301549457
0.244273202186374
0.2232462446710364
0.1559500134427772
0.0861568003818689
0.2073683722860126
0.1920382540043888
0.1812468803223039
0.1712443622150276
0.160472444574146
0.14982859426539
0.1408871915641449
0.1339258365742075
0.1308972853004392
0.1325440841074958
0.1386495681184898
0.1498264544413652
0.1668245945129432
0.1944393221194293
0.2306090721576575
0.24020856612779
0.2125371919171668
0.1489456256495851
0.0835999446935563
0.2060754716058472
0.1908921657003275
0.1803689876773281
0.1700976279203975
0.1593494202271695
0.1488400729364002
0.1398366576344359
0.1332332770188453
0.1304658392452796
0.1324517556501953
0.1391456919958183
0.1512974543542878
0.1694621654000309
0.1992394992934084
0.2347631120374839
0.2404038853464156
0.2076892687855447
0.1425663849016571
0.0806012213810579
0.2048360511517661
0.1898972098949196
0.1794110886982274
0.1691373160606467
0.1588634265168108
0.1484634228115776
0.1392571102553452
0.1328341872148844
0.1303638972476942
0.132463837257333
0.1394868481437507
0.1523643232453538
0.171348056766814
0.2029326166986832
0.2388092381214155
0.2419343779213308
0.2055622811436385
0.1379581152330899
0.0775583930578043
0.203677801064444
0.1888695730787716
0.178197093040444
0.1682527138327893
0.1584231173457218
0.1479941115415947
0.1387176234824386
0.1324968858784342
0.1305558581059112
0.1328123182530392
0.1399796297057499
0.1531130472844257
0.1728192144947208
0.2053832858838912
0.2422667148139959
0.2442968635564602
0.2052423982802498
0.1352308935713375
0.075572778474653
0.2027203171389736
0.1878232226842998
0.1773227430373639
0.1676047731894663
0.1580230552138952
0.147493909556812
0.1382960059161981
0.1321941115477865
0.1303500714422209
0.1328810607746887
0.140385504542551
0.1535870377037883
0.1742390406407431
0.2077200190398304
0.2440505745021595
0.2445438012568123
0.2038730199381465
0.1328865695619699
0.0741791341846517
0.2018824682063651
0.1870584269879742
0.1769317733964999
0.1673728948423227
0.1575391669552366
0.1468310914622761
0.1378603800494682
0.1318546029508969
0.1298557621805159
0.1326368782565737
0.140656934078308
0.1540366599079755
0.1753472455093635
0.2094312503433235
0.245297096306953
0.2442517324344649
0.2012363701630668
0.1299533183818428
0.0727286176195203
0.2010906604770353
0.1863846982679182
0.1766418546068411
0.1672182032757879
0.15689587732608
0.1461109647052189
0.1373890484140054
0.1316657960586179
0.1296933250563774
0.1325172808856108
0.1409011420173428
0.1546780528940844
0.1764606688670197
0.2112224280822021
0.2465711364542317
0.2438363551182883
0.2002149025981401
0.1288389062512059
0.0715339683076025
0.2002429720569082
0.1855867501006346
0.1762763769290115
0.1671807243957138
0.1567725485874932
0.14580584127871
0.1368941884652828
0.1314615424601332
0.1297872255221863
0.1323869091056628
0.1408594697464856
0.1551527857220897
0.1779700833602799
0.2131595859163897
0.2464422475470223
0.2430320574820353
0.1992963465013361
0.1282805613860623
0.0707777826834854
0.1991941655809568
0.1850328350346606
0.1760667522202946
0.1671143909447629
0.1569204321464141
0.145933078182463
0.1367657416039963
0.1309795159330564
0.1295455724832049
0.1322585831466337
0.1406358474360484
0.1552385173591486
0.1790901133357717
0.2149812516517585
0.2457550114731171
0.2412639245658428
0.1970746187206455
0.1267376873408221
0.0703777086446489
0.1984196682391683
0.1849778273825281
0.1762392963597985
0.1669737656505799
0.156800122169581
0.1458795170602386
0.1368882626978826
0.1306794201210116
0.1289900511760939
0.1321508600164369
0.1405753767750944
0.1551645633749823
0.1793974137582026
0.2162899348534735
0.2454948032388236
0.2387291298491515
0.1951446631812821
0.1255121289977617
0.0701156353088566
0.1980831594809161
0.1852762828584986
0.1765413030379644
0.167060781358955
0.1569038384436335
0.1457672726780071
0.136761176496212
0.1305242586283988
0.1285707584193644
0.1321109908175466
0.1407055442284116
0.1553655190825457
0.1800178053699366
0.21704165467502
0.2443436040374736
0.2357297839760052
0.1926890691580616
0.1240055091708207
0.0699451054394093
0.1976729316208695
0.1854332625977849
0.1765438434361632
0.1669783551789196
0.1569711245866031
0.1459194864455625
0.136641081277449
0.1302441764359212
0.1284183830826253
0.1322592236806485
0.1408130499322247
0.155680511867453
0.1804360246095031
0.2166435827181424
0.2428694668616627
0.2337047327965772
0.1901007228865213
0.1222894863509011
0.0696974697467775
0.1972172627975217
0.1854967549743151
0.1765432962646722
0.1668714103944001
0.1566392768178721
0.1457920832527203
0.1364653814342331
0.1300660014237133
0.1282371411046244
0.1321210317873191
0.1406769643128694
0.1555260081229975
0.1797334314548225
0.2160921329756437
0.2429630932067673
0.2327999960178365
0.188201626296583
0.1209418694522989
0.0689794565270385
0.1971224369996084
0.1856203673586708
0.1766017692637501
0.1670508265641536
0.1564869352936675
0.1457342726956506
0.1364482903895011
0.1301243189509316
0.1280708540471418
0.131915381737996
0.1406526786135962
0.1554069275659038
0.179412020119997
0.216249523017187
0.2419544213190983
0.2302743157032267
0.1865904441003913
0.1204114066968184
0.0686718608829417
0.1295666293007903
0.1263775944442934
0.1233996870436324
0.124542054146305
0.1295366396073563
0.1355998740543907
0.1434152331583418
0.1520376967251689
0.16082761437585
0.1697853182113214
0.1789595212810504
0.1880810348663552
0.1962384500773498
0.2029279478308964
0.208339376014332
0.2120261103612842
0.2139757489675433
0.2138376617539865
0.2120461302744916
0.1200436680578509
0.1177759537238595
0.1178899739710334
0.1247351240594886
0.1339672037219646
0.1440574109379517
0.1558325751477306
0.167410291532161
0.1774412277405151
0.1876469665105112
0.1974784613305658
0.2061387656787125
0.2132540641270824
0.2174988380420085
0.2198056192979211
0.220145322246281
0.2189396968513572
0.2169052544317156
0.213393490349759
0.1175465862465959
0.1183274572022878
0.124488493699348
0.1379877832779506
0.1510131636084753
0.1644108122931856
0.1776363911859187
0.1897317665275264
0.1997934407098051
0.2082850335772833
0.2151414461082204
0.2195697206250893
0.2218520239376418
0.2219520948080349
0.2205293299788729
0.2183953703824877
0.2152916845477989
0.2115637270720794
0.2068691714158637
0.1200132886667678
0.1245212366295453
0.1367571057769797
0.1551997327165094
0.1701854029429685
0.1845676813865444
0.1972542219178346
0.2076859284872927
0.2150043258415964
0.2196488426554445
0.2225775737501079
0.2231848921426259
0.2219287926894873
0.2193680724059184
0.2159836291221952
0.2127918382603583
0.2090898099627572
0.2047703601280742
0.2001219844999451
0.124418234719776
0.1326570313019295
0.1500214934282962
0.1712803209804373
0.1871572216324354
0.2002994756210865
0.2109749019017687
0.2184445078395973
0.2229811121377329
0.2250390237362827
0.2248697494693981
0.2232479872560283
0.2201285183603746
0.2159093735517294
0.2114352743934981
0.2072083731982549
0.2028705799796069
0.1978755573976231
0.1921328168134544
0.1293773251374228
0.1414275545869251
0.1627345807995764
0.1852223326053219
0.2009397860519922
0.2123178745075459
0.2203655703068558
0.2255314215713112
0.2280140534315431
0.2275858504275881
0.2249473783669565
0.2211776171427933
0.2161469621106301
0.2101562990505859
0.2040963545131021
0.1982940535395102
0.1922059415922316
0.1856301624075673
0.1783689012968277
0.1358162148439289
0.1509679472541195
0.1746773658452357
0.1975423734836431
0.2121734762821977
0.2217348539413673
0.2278691180290778
0.2306489839601165
0.2302121960742773
0.2271205039112839
0.2221520796078554
0.2153945439064931
0.2077818029106193
0.2000016492932317
0.1920714352791164
0.1843862253431947
0.1765139961465404
0.1683684597219262
0.1598722151074485
0.1431907288766162
0.1609710835793845
0.1871212584238368
0.2087821966524743
0.22148251952782
0.2291682736658495
0.2331956627310826
0.2329924134793977
0.2292589128497616
0.2235554779659319
0.2158455783138043
0.2060183371961103
0.1955809971421774
0.1858426836067844
0.1766702799837728
0.1678256521300832
0.1589280928115473
0.1498397004523033
0.1409152335797693
0.1529233279232476
0.1729313312156157
0.1994288986757691
0.2193161648714813
0.2297936001766232
0.2349814749249902
0.2359408659498899
0.2330243630770866
0.2265007590255393
0.2171194249772513
0.2060618559915341
0.1940550665691146
0.1820283472210391
0.1710155694321639
0.1609727649569227
0.1514752001477293
0.1422858207569308
0.1334133646414179
0.1252307945005081
0.1632168649431404
0.1847952660253065
0.2112032521345389
0.2285587757691295
0.2361018768353169
0.2387637907690061
0.2365787818509846
0.2304976898720044
0.2212470629652017
0.2087704952573241
0.1951227222183293
0.1810837149009971
0.1683983448074311
0.1571138966491367
0.1465968220543121
0.1372147381656034
0.1286081964827733
0.1208353047389543
0.1139743797033651
0.1735826478245654
0.1968369847899143
0.2215711959076038
0.2358695396656004
0.2407451132358187
0.240385356106259
0.2347755879583767
0.2253147035607107
0.2134182346600803
0.1989513372524894
0.1834042792516743
0.1685749089973217
0.1555307962046272
0.1441623563713869
0.1344219287756289
0.1260132230571795
0.1186506323589075
0.1122994723432712
0.1071289140222895
0.1853166296153303
0.2083760535339485
0.2299312148522975
0.2409929039175734
0.2429651834211087
0.239457513327445
0.2311034380422572
0.2185079362116489
0.2039807119506043
0.1881779932332647
0.1713762662804361
0.1566472807597475
0.1441934014471586
0.1336208747725974
0.1250625807192826
0.1178888506187733
0.1119899979243656
0.1073895555815707
0.1042249279734676
0.1965938058040515
0.2179489426679868
0.237123510039257
0.2443840977031016
0.2432246241506669
0.2366325311466646
0.2256997796259574
0.2107636857591018
0.1941637619887161
0.1777398570175078
0.1611477426050962
0.14658774330386
0.1350790932936978
0.1260252798535147
0.1186185758995749
0.1127463481523879
0.1087098866666728
0.1060550380628358
0.10474412290063
0.2066137582690604
0.2262760572030223
0.2423857223212569
0.2457191408089108
0.2418363397809746
0.2323824529023083
0.218404975633497
0.2018053624452821
0.1847662169712993
0.1679425905725405
0.1520168365910595
0.1385656594406349
0.1281389571077259
0.1204198513106194
0.1144034228224185
0.1102701819294485
0.1081453142128236
0.1072899872202587
0.1078027980695846
0.2163772996459667
0.232877216938104
0.2448171924242022
0.245456840012142
0.2390314391377234
0.2272444399006066
0.2114010011808856
0.1936623561127443
0.1763226866373352
0.159485687266096
0.1444103450680745
0.1322714931434666
0.1230774325830617
0.1165908069647731
0.1122896043891944
0.1100008964818037
0.1095892439579543
0.1105531164010128
0.1137410357181722
0.2248215256586513
0.2376043340518365
0.2460528367051564
0.2440415749432514
0.2351946842168837
0.2217504707980311
0.2042453779125466
0.1864902323272113
0.1693931895295387
0.1526853211781675
0.1385674578936741
0.1273676950316515
0.1195299103227879
0.1145448371131549
0.1120837495325082
0.1114927073263274
0.1126579494056008
0.1160906300240483
0.123315791439466
0.2299073135348059
0.2397952662285382
0.2461107070247432
0.2414386667709123
0.2307820526825557
0.2159652670303785
0.1975303200917035
0.17951310182892
0.1625712455178808
0.1470168863338135
0.133859553816287
0.1237115341092208
0.117396689514392
0.1140203070701102
0.113134486651959
0.1142074604160968
0.1173563868794234
0.1242483496059735
0.1352296368404161
0.2325852334271815
0.2400101778122628
0.2445081779576026
0.2380062940411874
0.2259447564781364
0.2098029019535557
0.1915270973959227
0.1730867008891689
0.1556991726247011
0.1418123042661065
0.12996775264106
0.1213082146456033
0.1165325577522839
0.114800369491631
0.1153120452522605
0.1181854103585418
0.1243063941228852
0.1354987130118546
0.1474688039025136
0.2342290088266813
0.2394726025385896
0.2416659239849843
0.2338464842744601
0.220544293125597
0.2035172979183072
0.1851940910080146
0.1669535031258664
0.1502446078970936
0.1372766547480444
0.1267557742095938
0.1197729578290781
0.1165643201297487
0.1165135027953959
0.1185829550923791
0.1237447354967372
0.1335007044659762
0.1479812339228369
0.1560544775626802
0.2348310950356497
0.2385181460291045
0.2384419099557547
0.2296315953826091
0.2150964538353038
0.1975078511298353
0.179454660693224
0.1615028376890389
0.1460186243759656
0.1336493297240112
0.1241814178513365
0.1190159213890129
0.117489919833159
0.1189008347229607
0.1228794614106352
0.1307249695913171
0.1443977652082569
0.1593738615740316
0.1603040137221263
0.2342763435354168
0.2368306512067731
0.23492914765366
0.2248356189866883
0.2097616687621103
0.1919109978133155
0.1740406889611147
0.157076438441553
0.1427561110492996
0.1310082835296873
0.1225319606162039
0.1188948318104475
0.1191292942122544
0.1220494893745923
0.1281896026310101
0.1392381226507709
0.1562457766691214
0.1705706389619534
0.1593618155460449
0.2326161106889075
0.2337409836874525
0.2311099538814015
0.2199815113808522
0.2044484892650003
0.1870830697849288
0.1693121362081851
0.1532408863266612
0.1395921323494808
0.1288421041337512
0.1218228394340309
0.1193615487821489
0.1210916387564359
0.1258160877980617
0.1340272592624948
0.1491287695780152
0.1692994021925206
0.1812581383863707
0.1477206620797188
0.2306574028326751
0.2300699407118714
0.2271377006673709
0.2155766994612069
0.1994482427325771
0.1824015439581661
0.1653222566463837
0.1495130464375563
0.1364156346365615
0.1268950495872025
0.1215992047066139
0.1207426878845383
0.1237790042066955
0.1301787771257335
0.1414776295633482
0.1609456527079271
0.18170278278663
0.1809851404888144
0.1323393299654558
0.2281336307285507
0.226201149464884
0.2229767641680831
0.2112627996050146
0.194981898622935
0.1778594882416475
0.1613913008587626
0.1463037809134411
0.1341591668352408
0.1257513190309308
0.1218317791995039
0.1225470091042585
0.1268954351161558
0.1350688475365173
0.1499416848613709
0.1727000743187579
0.191653495776566
0.1754639846371498
0.1206636735440223
0.2248934616813076
0.2219786354771745
0.2186904696847159
0.206777722774618
0.1907172841405926
0.1741429916012672
0.1581771122966996
0.1435784905038173
0.1325272020034171
0.1254564337291182
0.1226302488857685
0.1244053448668733
0.1302616020035494
0.1409868835497249
0.1587537579184735
0.182247835654819
0.1980206209293493
0.1729030730053067
0.109999847117889
0.2216713896845669
0.2183915113301899
0.2143888828483361
0.2021685393963275
0.1867268823897675
0.1706627231768499
0.1554916023804865
0.1415481303159083
0.1311434179421009
0.1252030970054082
0.1237537469335673
0.1266106066539829
0.1337567236397993
0.1469262347147531
0.1675718874125928
0.1912024189925783
0.1976237989535633
0.1636263240764797
0.0998944160615334
0.218715227440985
0.2149123498625885
0.2101592534831818
0.1978426965407813
0.1832970533251916
0.167654508177962
0.1527860633812102
0.1399139556309752
0.1303213572126401
0.1249914253114317
0.1247864796623748
0.1291059364713064
0.1376091004431788
0.1524476233079275
0.1750773633081701
0.1997527257249831
0.1984375324618471
0.1543509489793998
0.091317888817189
0.215685151963904
0.2109285285995044
0.2058083268411659
0.1939173174212423
0.1797749048221772
0.1649131202930765
0.1504471541844202
0.1385154721324652
0.129664771440027
0.1247867324207275
0.1256658257646959
0.1311670370718304
0.1415848097857766
0.1584303126678996
0.1832960400320837
0.2090829109053206
0.2031076301751163
0.1503270131052292
0.0861721959206123
0.2128583112279122
0.2075739841582539
0.2021972171565954
0.190904130325627
0.1765768198566972
0.1625470925547354
0.1488666566623587
0.1372744863015774
0.1286596958416478
0.1244954505289236
0.12640809118749
0.1329796712065552
0.1454079158395881
0.164137291186272
0.1908768409076311
0.2140787138719501
0.2024897756274337
0.1461507533458979
0.0831124319234702
0.2100071130221266
0.2046680400887864
0.1990820412462931
0.1882517883806798
0.1741949006538033
0.1604462926073098
0.1472874495821654
0.1358816673204923
0.1278032062424762
0.1245349664893759
0.1275584082776016
0.1356383407296395
0.1494988282449875
0.1691942124818195
0.1972835342665583
0.2140104305323569
0.1942476273356328
0.1386264453002516
0.079751628425076
0.2070321556463941
0.2019258768563721
0.1958872359427945
0.1850863660541746
0.1718172983092781
0.1582081110341829
0.1455160668527607
0.1345297250416042
0.127286829509729
0.1249661619162293
0.1288829932850412
0.1380455189192478
0.1523819097089012
0.1736387814651944
0.2043197646778347
0.2151354451273515
0.1874240923192714
0.1318492080204476
0.0767091596458937
0.2046509636273443
0.1992065245780545
0.1929829482631773
0.1822639590744443
0.1697513235508292
0.1564159439276378
0.1439742672602484
0.1335353204787317
0.1270698603333057
0.1256856880847691
0.1302543568307826
0.1400608135017851
0.1550068597816017
0.1783412444777637
0.210685303121327
0.2182667669403243
0.1864210189874916
0.1278562943464871
0.0740794911661812
0.2030628587265429
0.1967198661238091
0.1906991326690938
0.1801718904041552
0.1678161239336447
0.1550390429191287
0.1427762715598514
0.1328434671293198
0.1271504614078613
0.126589479441505
0.1317510908348744
0.1420224824692287
0.1580456535911649
0.1836972081337128
0.2163930897707705
0.22208952091856
0.1870610711995534
0.1251398502729032
0.0728568600039492
0.20187074217078
0.1949164539322709
0.1887568851750772
0.1783047255122509
0.1659398053260675
0.1537855121951936
0.1418737350065556
0.1321641959339383
0.1270917640574374
0.1273447961816901
0.1326495688842717
0.1434856020900966
0.1605826718433947
0.1884526284545952
0.2210066210082764
0.224242946452778
0.187849290783395
0.1236934286092811
0.0716787502460913
0.2008277288012122
0.1933022976060841
0.1866595038455425
0.1765780098933149
0.1642642548849431
0.1520568690311237
0.141030584590056
0.1318482052538084
0.127012707274219
0.1280145886978903
0.1336797338888959
0.1452079802833531
0.16274538009544
0.1919244553506695
0.2247466426990906
0.226509159201819
0.1885631991684214
0.1224376922739816
0.0701878688693365
0.1999039304110212
0.1916295000631019
0.1847187764255954
0.1750918805614559
0.1627039077302022
0.1504651698725128
0.1403008306050841
0.1316282799561249
0.1272191194427332
0.1287271656655755
0.1351520938027408
0.1470167794350516
0.164395677079162
0.195349566696802
0.2295390177291728
0.2294919199487641
0.1882540683736863
0.121431766133978
0.0697356819220729
0.1992661892360641
0.1903601949918643
0.1831471018360238
0.1739875521781803
0.1616232568500798
0.1494317315180197
0.1395917462367672
0.13122847238316
0.1274104024166607
0.129410312245696
0.1363352899305019
0.1486600047236211
0.1667299134146735
0.1987527452131426
0.2330709819199627
0.2317523744899453
0.1884632490187978
0.121219056698013
0.0698418625018613
0.1987357284161693