/*--------------------------------*- C++ -*----------------------------------*\
| =========                 |                                                 |
| \\      /  F ield         | OpenFOAM: The Open Source CFD Toolbox           |
|  \\    /   O peration     | Version:  2112                                  |
|   \\  /    A nd           | Website:  www.openfoam.com                      |
|    \\/     M anipulation  |                                                 |
\*---------------------------------------------------------------------------*/
FoamFile
{
    version     2.0;
    format      ascii;
    arch        "LSB;label=32;scalar=64";
    class       volVectorField;
    location    "0.0051";
    object      U_LES;
}
// * * * * * * * * * * * * * * * * * * * * * * * * * * * * * * * * * * * * * // 
 
dimensions      [0 1 -1 0 0 0 0];
 
internalField   nonuniform List<vector> 
13597
(
( 17.395632904705288 1.6445417039616952 0.0512008265536257 )
( 17.394026647942706 1.6955918773024037 0.047825482418881 )
( 17.402680839726745 1.801375234999671 0.0381315086773927 )
( 17.421030502789236 1.936962108541454 0.0245682250382855 )
( 17.43945111206203 2.0517653689417528 0.0124038025125573 )
( 17.452626416358786 2.1465889575669137 0.0021853559419374 )
( 17.469484387030654 2.2401783538539504 -0.0075606431544609 )
( 17.490049018131288 2.3384403172026533 -0.017003185770382 )
( 17.513830352181717 2.435816965864011 -0.0257967170299295 )
( 17.53947775690175 2.532468002613174 -0.0334171863103345 )
( 17.566972267146813 2.637092163390155 -0.0399452981828002 )
( 17.599402642022064 2.738568822296615 -0.0457454520708462 )
( 17.633844034476525 2.836385482877237 -0.0494050619782699 )
( 17.668749152204807 2.937822154550949 -0.0511447492672435 )
( 17.704149937462585 3.0396470610652853 -0.0518449153439792 )
( 17.741474461116855 3.138819793134418 -0.0510066069895763 )
( 17.781171217932425 3.2320602496130477 -0.0493720122369487 )
( 17.821017100198222 3.3229351029257423 -0.0462667067062344 )
( 17.86139750668141 3.4155144009557423 -0.0420808757975599 )
( 17.264241665789783 1.6745492858917888 0.0620207363561752 )
( 17.24466701603196 1.7404057201674767 0.0558517710052912 )
( 17.232944484118256 1.8795195450844917 0.0385216113783994 )
( 17.225835258851024 2.037712254205221 0.0174712026634727 )
( 17.219682797534034 2.160473809952103 0.0014412017914276 )
( 17.213333297337066 2.274432908753532 -0.0129722088911463 )
( 17.211721895631474 2.387947551938406 -0.0262973104355904 )
( 17.21093651913948 2.5048024269922653 -0.0385703534235179 )
( 17.213707666135733 2.621461173784013 -0.0488631398217007 )
( 17.21659318747189 2.7358920042856885 -0.0566876264755155 )
( 17.21879148062493 2.858791991959297 -0.0630273478488624 )
( 17.220256401437204 2.984920492813004 -0.0682035545713559 )
( 17.217993972746964 3.1083369210056646 -0.0705446743406236 )
( 17.217336910090463 3.231671951001656 -0.0701065088425113 )
( 17.218434046204337 3.349306422946698 -0.0685340893126094 )
( 17.220798624673137 3.459194310095916 -0.0663349452293777 )
( 17.223079017349974 3.558792330926114 -0.0636219340965996 )
( 17.22346430827493 3.658135703354898 -0.059848390524981 )
( 17.22843868202477 3.7557673767970936 -0.0558028892711551 )
( 17.128353811446686 1.6987639765747495 0.0642498766712072 )
( 17.08773566333218 1.7763750285133648 0.0533464125561352 )
( 17.05340323501726 1.9388521860275088 0.0284850637022714 )
( 17.020862530163583 2.1140382418171733 0.0015361073497201 )
( 16.989398347184316 2.244181291722163 -0.0169173498862712 )
( 16.96354811230242 2.37246974685284 -0.0327297402293217 )
( 16.94082975915835 2.5019629833623696 -0.046591183140711 )
( 16.91186236644846 2.628857448667192 -0.058667203774085 )
( 16.88494589883772 2.757297732962417 -0.0678326159424556 )
( 16.85859304001827 2.891946869398807 -0.0739490452051958 )
( 16.82766717073358 3.028499564568714 -0.0773174574514128 )
( 16.79477500434629 3.1694659727743097 -0.0787007549465846 )
( 16.760608236373315 3.310553474252144 -0.077846236271501 )
( 16.727706509668106 3.442464221493836 -0.0753007687045147 )
( 16.698079307203017 3.5607991905775997 -0.0723747154297696 )
( 16.672531693311512 3.6647022458776974 -0.0696805714725832 )
( 16.645582206916576 3.7569101065274513 -0.0673390199294198 )
( 16.617348794044315 3.8482248665941463 -0.0649551095075422 )
( 16.59740460570921 3.943189684711327 -0.0630313475634325 )
( 16.98526739142811 1.7146674197303404 0.0590376518978706 )
( 16.924891603572327 1.8031649460012025 0.042476338521208 )
( 16.87021224952719 1.978514805275885 0.0126292434169688 )
( 16.81298103189245 2.163340714142807 -0.0170433574228092 )
( 16.753770176712205 2.3015259410027427 -0.0369792555916365 )
( 16.700449371501527 2.434819155558165 -0.0526737157174674 )
( 16.644384866124287 2.5723090820270182 -0.0651307510785722 )
( 16.582370597867577 2.707424200561222 -0.0746077734147652 )
( 16.52516399825905 2.843337440490959 -0.0808167069185737 )
( 16.46887184858946 2.985342521842401 -0.084467938101218 )
( 16.40550092983918 3.130206074621131 -0.0852439001987486 )
( 16.345780322476354 3.27661709837099 -0.0839487478219291 )
( 16.28917156023512 3.4201241776704023 -0.0816360413332716 )
( 16.23143004929491 3.554380178282881 -0.0797224429871526 )
( 16.176791519656856 3.668187494164308 -0.0787103715703994 )
( 16.127309267074875 3.7656880616916686 -0.0782381705999241 )
( 16.08052860967858 3.853832675066962 -0.0786270300570156 )
( 16.031436338749234 3.942820280052661 -0.0800735912934448 )
( 15.986074045820438 4.043330184052662 -0.0821138439993688 )
( 16.84311263129504 1.7220175933003814 0.0480376716870111 )
( 16.768100357598243 1.823634120561796 0.0266465994611122 )
( 16.6902779037127 2.0088723673937694 -0.006086334103521 )
( 16.60447351102098 2.1930668463630782 -0.0359629642495998 )
( 16.518711208066673 2.332872877217785 -0.0553119928758511 )
( 16.435705510017392 2.4672687051797806 -0.0699363110993492 )
( 16.346862356948275 2.6069081080419867 -0.0801920585618217 )
( 16.25616617583123 2.7447787356238744 -0.0868580317693558 )
( 16.170382770508002 2.879558067476186 -0.0910754840231687 )
( 16.083205763762752 3.0205777590702114 -0.0932844776977153 )
( 15.991497697423366 3.1719205760677545 -0.0937696591839641 )
( 15.904205130915756 3.3240986724789043 -0.0932833189541132 )
( 15.820421317004357 3.4691617320294528 -0.0932351581661413 )
( 15.736859815027747 3.60325084344335 -0.0947613851180593 )
( 15.6570743112801 3.712508970220844 -0.0974508994668297 )
( 15.5816320633166 3.8113683112974974 -0.1004352927948258 )
( 15.511316118238442 3.906682838272334 -0.1038756272022934 )
( 15.442748116615794 4.002885312212709 -0.1080741830656792 )
( 15.375100122749348 4.113258760965636 -0.1126471680349895 )
( 16.706340248154586 1.7198152427711109 0.0346201445750212 )
( 16.613714684329818 1.8318930806473013 0.0094097404036783 )
( 16.507988746403495 2.026764874050904 -0.0251155426687756 )
( 16.396114262254926 2.207324551101008 -0.053577963723803 )
( 16.2876611511915 2.3439302842623566 -0.0706722998833049 )
( 16.18050816160286 2.477383594282902 -0.0832087995207339 )
( 16.068929733101122 2.612619810902458 -0.0921654562096044 )
( 15.952760570228495 2.7465887616258704 -0.0977252603604788 )
( 15.833619095923464 2.879713252593293 -0.1019464330472376 )
( 15.713587604448112 3.0265558401297827 -0.1049175904275242 )
( 15.59756912586124 3.181111418355845 -0.1068133535878844 )
( 15.481644977769626 3.333727088357972 -0.109235617620966 )
( 15.3723449427204 3.482112852968883 -0.1124214225884159 )
( 15.269043477433565 3.6167504240841817 -0.1164338671439972 )
( 15.167869111398248 3.7290876084963274 -0.1213164085865427 )
( 15.076338491014518 3.829283244327108 -0.1259807674978786 )
( 14.98788392176569 3.9276353883961783 -0.1305871552102933 )
( 14.900489717210831 4.028801254521953 -0.1350188391994113 )
( 14.814664104636629 4.145912899568954 -0.1389914758100089 )
( 16.56688133800672 1.7096988647991038 0.0203084103117294 )
( 16.45690350792159 1.8308058808578764 -0.0074388307098546 )
( 16.328618867801694 2.028742867040871 -0.0422380938879322 )
( 16.19399553584305 2.201590977916388 -0.0686837935059365 )
( 16.064322396017587 2.3327643016668698 -0.0846627633103115 )
( 15.93251290565168 2.460567352732579 -0.0960162372003681 )
( 15.79691419472644 2.5920628752437094 -0.1041770828388704 )
( 15.657679317681035 2.7245997312025225 -0.1099734499285578 )
( 15.512242463631656 2.8565063167026152 -0.1148917650464038 )
( 15.37241003741032 3.0049246324543097 -0.1188392674597838 )
( 15.23373639509918 3.1623367835369725 -0.1227195988201691 )
( 15.091903519419116 3.3193128276768284 -0.1273744765729834 )
( 14.961685391740916 3.4684369148708223 -0.1319438833503865 )
( 14.839530600863132 3.602379530539328 -0.136401538787369 )
( 14.719707499979677 3.7208558575228743 -0.1409987239104978 )
( 14.60939205618234 3.821576771244597 -0.1447814156649904 )
( 14.504174048556427 3.9203668123931465 -0.1479055456965967 )
( 14.39773721952922 4.028901818439056 -0.1507967457732451 )
( 14.292885990433444 4.152403116166485 -0.1531262279900916 )
( 16.434843299792274 1.6937950603338223 0.0059763311011759 )
( 16.307968344802703 1.81629898262776 -0.0233114732717673 )
( 16.158896034534262 2.0102772593280296 -0.0578818232926692 )
( 16.004306258853347 2.174962910968762 -0.082338756755282 )
( 15.852728700220869 2.301635382042688 -0.0977491466906591 )
( 15.697690784902411 2.4273276024484995 -0.1083715121124963 )
( 15.539000250760385 2.5566817486693805 -0.116027344828642 )
( 15.3805486724204 2.683980040003338 -0.1224266885371374 )
( 15.21325204904914 2.8150642957375624 -0.1284920975130035 )
( 15.052948518602948 2.967655007009822 -0.133319671168151 )
( 14.891007688957025 3.1285945143476903 -0.1379696970168272 )
( 14.730288136979048 3.2908883352319918 -0.1425062440617866 )
( 14.58057213799662 3.4425355192218787 -0.146525121696202 )
( 14.435464276345911 3.572720456671313 -0.1501185062863671 )
( 14.302306934504308 3.687263396249248 -0.1530383611399308 )
( 14.173786794166542 3.7905391058639735 -0.1552803938193324 )
( 14.049132681361035 3.8952844543871454 -0.1567510579780731 )
( 13.925063688700888 4.012240129764765 -0.1576481566581047 )
( 13.802444337336336 4.143182243063461 -0.1578870279701033 )
( 16.31085123518957 1.6654471054446918 -0.007729750525881 )
( 16.165976214577196 1.7829018377674055 -0.0381910616421988 )
( 15.99613881064192 1.9724066903110808 -0.072025730645868 )
( 15.824611961758398 2.1298158435682666 -0.0949611515875233 )
( 15.651886715876524 2.255300655275725 -0.1095230582330237 )
( 15.47963131710644 2.377291960272409 -0.1198109837167878 )
( 15.30416289985847 2.500506601288842 -0.1274347337601121 )
( 15.128249948976723 2.630725226014689 -0.1338978167891434 )
( 14.944955709774575 2.7670940421354544 -0.1401475143363618 )
( 14.755918244319254 2.918275502861544 -0.1454218022137602 )
( 14.571713950033583 3.082340845561691 -0.1493725112079674 )
( 14.39660558742094 3.246740301807815 -0.1524137197680763 )
( 14.223762090449569 3.399579317895059 -0.1550374711078365 )
( 14.059189282259434 3.530631556755371 -0.1571814568575956 )
( 13.91264601127076 3.64309103260932 -0.1584878552784551 )
( 13.76629612089037 3.7503835292886736 -0.1593592313207721 )
( 13.6213320696673 3.858921607306873 -0.1592230293684386 )
( 13.477306976107789 3.9798322892058007 -0.1578796154721234 )
( 13.332359473098576 4.117359667823895 -0.1557922217734743 )
( 16.18943932213968 1.6320136699276535 -0.0217053124916558 )
( 16.02881742755158 1.7507362824324422 -0.0533954678242519 )
( 15.841420435605071 1.933333969780128 -0.0854028093377219 )
( 15.653538286950775 2.07800956023246 -0.106472619300901 )
( 15.465219644720236 2.201327779352543 -0.120508784340721 )
( 15.278579764333408 2.315481253403832 -0.1304714819251816 )
( 15.084473739278891 2.4307514692653918 -0.1377508506694627 )
( 14.885239519477077 2.5612617592430937 -0.1439918769571162 )
( 14.68797569616459 2.6986732720956965 -0.1489775553112764 )
( 14.48214529013742 2.8519950552158595 -0.152907608367179 )
( 14.279313833101446 3.023336186285216 -0.1560505907988022 )
( 14.086028384667916 3.192532163051628 -0.158058286506408 )
( 13.895863840818814 3.343166169396447 -0.1591571253748967 )
( 13.71754680047709 3.475846795656476 -0.1596671178959557 )
( 13.550117664364002 3.590068271101663 -0.1593536799911336 )
( 13.3819095182483 3.697125027471811 -0.1582525589382117 )
( 13.212576644190513 3.8066761505894737 -0.1562509362605404 )
( 13.045507793059391 3.929488066998657 -0.1536710378053817 )
( 12.879075589085152 4.07401890541814 -0.1513486890815476 )
( 16.07780183762719 1.596043409242527 -0.0358941674495325 )
( 15.90553712799898 1.7153604276339711 -0.0672028986121663 )
( 15.69681511630035 1.8884654455344585 -0.0972467261251969 )
( 15.497381102486772 2.020099967387622 -0.1166233706506284 )
( 15.296716987007956 2.135694161918454 -0.1298837976385517 )
( 15.091833111503083 2.2449839595938017 -0.1392412743178433 )
( 14.88140792910698 2.353968507230929 -0.1464142929880632 )
( 14.667559648138722 2.477942905494384 -0.1519736985022033 )
( 14.45229632201685 2.6203945762628966 -0.1551077158043797 )
( 14.23301307055722 2.7789764377634825 -0.157175239480053 )
( 14.012444137100577 2.952151278585508 -0.1589305187821358 )
( 13.794738658459988 3.1279836153252285 -0.1594842659115466 )
( 13.591917765860446 3.278075734110629 -0.1593098454192686 )
( 13.39865281693113 3.4112574360503984 -0.1584115519579067 )
( 13.205118811445608 3.5270950850816822 -0.1566118085651414 )
( 13.01085337466218 3.632635681621101 -0.1542493936811875 )
( 12.818240831723829 3.743991827206937 -0.1521183322300228 )
( 12.632298728801928 3.871018008521181 -0.1505404366505219 )
( 12.444124119955662 4.023572736359117 -0.1490756064504692 )
( 15.971186552702152 1.5533265365982367 -0.0496429924622411 )
( 15.785416652097414 1.670919362431725 -0.0798107748189759 )
( 15.559334753591282 1.8360809324832128 -0.1081916717975478 )
( 15.350068693639798 1.954499976002955 -0.1258467942185306 )
( 15.13664412635968 2.058519203385753 -0.1378103818966286 )
( 14.915853063710545 2.1651293944744814 -0.1464701303881695 )
( 14.69662716673622 2.2788226110279464 -0.1529751719511671 )
( 14.469839679814813 2.4038661176367024 -0.1569318178912887 )
( 14.23732745390246 2.5485819234528337 -0.1581895733969478 )
( 14.00082087962023 2.7071027871239086 -0.1588780152987827 )
( 13.762932992044286 2.877548312307531 -0.15904057124084 )
( 13.52579236465754 3.0498956183471035 -0.1580399206336018 )
( 13.301076245657754 3.203917224938309 -0.1568476209310995 )
( 13.084751694848883 3.3433440826948333 -0.1553465053672465 )
( 12.866709614993743 3.458770459555337 -0.1532709145527081 )
( 12.653279592885829 3.560671965431148 -0.1513033651868717 )
( 12.444924889606307 3.673515826872789 -0.1500339560862063 )
( 12.239272133876144 3.810506587223743 -0.1488383081897347 )
( 12.028723013064498 3.9734406104252304 -0.1458629706635055 )
( 15.869090767363565 1.4996794640830349 -0.0620495822721216 )
( 15.671643177349544 1.615062531592716 -0.0910762431780149 )
( 15.436406425977005 1.7743737096760337 -0.1179960344858688 )
( 15.213010159025822 1.8865539954084571 -0.1342664731569452 )
( 14.989152223124696 1.9889640725914848 -0.1449390221874008 )
( 14.758585768787416 2.093993559800163 -0.1518505701050763 )
( 14.527645955162347 2.207090551879109 -0.156461747638995 )
( 14.28445491545162 2.3295299029180456 -0.1586696154627901 )
( 14.03491332277485 2.469277209155316 -0.1592408079028006 )
( 13.784515127314751 2.6309749365245634 -0.1588753147357716 )
( 13.526822037693382 2.807300906915372 -0.1577144276933458 )
( 13.271479917251147 2.9764026162699784 -0.1563523143498377 )
( 13.021493426250904 3.130072321513524 -0.1541968863493599 )
( 12.7763370761479 3.2682389758103145 -0.1523884910218351 )
( 12.542828964575284 3.377567633780074 -0.1512846996306242 )
( 12.318785440045747 3.4807789743350384 -0.1497817383007305 )
( 12.092295751536918 3.599722069953512 -0.1475329266079728 )
( 11.861683039962664 3.743807802841474 -0.1442459425690651 )
( 11.62147007929936 3.921763040684589 -0.1381809609722175 )
( 15.776116704952743 1.4363490817170956 -0.0735166771638043 )
( 15.57290215767562 1.549879544802842 -0.1007542537772722 )
( 15.325441287191303 1.70535384918749 -0.1256788656656098 )
( 15.089388954866171 1.8142674663812344 -0.1405241102443677 )
( 14.855088112257851 1.9154904900894416 -0.1497829651429896 )
( 14.618406791832845 2.015813585608208 -0.1549969928696096 )
( 14.374497084007722 2.1254757274534746 -0.1578479334456542 )
( 14.121869123278708 2.2471384945554598 -0.1585921282420419 )
( 13.855676971654912 2.384108327704356 -0.1583285282636809 )
( 13.584539411531344 2.546575201077063 -0.1571118086944041 )
( 13.305698732671726 2.726210113990394 -0.1553281398194947 )
( 13.02582923523082 2.900523441073924 -0.1541097267142638 )
( 12.754550282691024 3.055888892295766 -0.1520342970407541 )
( 12.493413094011206 3.184562803067305 -0.1503704959867645 )
( 12.244712012660322 3.2896058311561864 -0.1493844601662916 )
( 11.999491291255485 3.4003634075020592 -0.1468621725799645 )
( 11.749951498378016 3.5317837413177755 -0.1428149504044722 )
( 11.489551990659397 3.67885941403269 -0.1368561228171287 )
( 11.21039920036649 3.8633737216051 -0.1285292008626837 )
( 15.692311539663471 1.373201559057269 -0.0835396212512838 )
( 15.478730124389426 1.4854599147152374 -0.1086132055773771 )
( 15.210605920575611 1.6373774134638064 -0.1324798825493575 )
( 14.96806970980059 1.7371649732999532 -0.1448513071603393 )
( 14.729595333378398 1.8326487208768871 -0.1527627011963393 )
( 14.487102708311529 1.9309273022896325 -0.1569867070721316 )
( 14.230951645929466 2.0376480315746246 -0.1580050479305572 )
( 13.96335004461244 2.1606237408188123 -0.1574484692118906 )
( 13.6852583668088 2.2970990913182607 -0.1562281797252372 )
( 13.39591080707563 2.455295932575795 -0.1546362855296048 )
( 13.092688901914553 2.63632069969718 -0.1530337527170772 )
( 12.78728607970429 2.811387958234111 -0.1514407099008707 )
( 12.49386614526129 2.9685743954217125 -0.1496339548210126 )
( 12.221962271494824 3.093896405693718 -0.1481791761577011 )
( 11.959462672529623 3.199297057388905 -0.1457707391449499 )
( 11.69161059957766 3.3151507691721847 -0.1418800741838343 )
( 11.41087109863968 3.4527142330594387 -0.1364228725421619 )
( 11.113640018637687 3.6124418930972255 -0.1287669749931605 )
( 10.807877530392958 3.8167263823410207 -0.1202708209725019 )
( 15.614301475014123 1.3122858944761882 -0.0917904382958649 )
( 15.39073076891644 1.4212644653871227 -0.1148716271667582 )
( 15.109635308298726 1.5664546000853952 -0.1369742088229115 )
( 14.860556157787958 1.656254932941862 -0.1475105883997467 )
( 14.61715823737995 1.7432876968560242 -0.1539313870239633 )
( 14.365916188495037 1.8462206259832972 -0.1570908212528867 )
( 14.099219542355009 1.9484192833946492 -0.1570137780721761 )
( 13.814459423339672 2.0642593371525284 -0.1554335372006502 )
( 13.520290856798733 2.204905049353803 -0.1537457868141434 )
( 13.213642598656854 2.360232151730842 -0.1522677963906974 )
( 12.882712315320152 2.545029060904064 -0.1509543361916595 )
( 12.550597707748034 2.724449515528802 -0.1487828833486016 )
( 12.246401387365818 2.874048287355107 -0.1466342446761485 )
( 11.966913479929165 2.996150295134884 -0.1443298616692696 )
( 11.6873262311402 3.106653800725923 -0.1405647748520067 )
( 11.393403378170364 3.227289091177705 -0.1358704842355332 )
( 11.077334574971903 3.3690060779412225 -0.128409227816163 )
( 10.74531785741866 3.546790404077028 -0.1213462832724538 )
( 10.43699744771002 3.792417933300397 -0.1157014421471909 )
( 15.543449084599915 1.2512167538584618 -0.097735858660149 )
( 15.30751928753945 1.3529186817719052 -0.1202444164971514 )
( 15.019148305112791 1.4942815991004226 -0.1399628111354432 )
( 14.768979630515028 1.5797397198012044 -0.1490319012224653 )
( 14.517348804046934 1.662286647330188 -0.1536051581103828 )
( 14.251341172190909 1.7612131316361317 -0.1550882153474827 )
( 13.972511936262803 1.856327234552558 -0.1544095585229234 )
( 13.68170543655289 1.970614104574419 -0.1527794321574563 )
( 13.369649821556555 2.1131400917786927 -0.1512289747888983 )
( 13.038888122014148 2.262581356316263 -0.1499242204994931 )
( 12.69538820477488 2.442521566175249 -0.1483500730857093 )
( 12.344006869622024 2.6340656731080365 -0.1458232787005973 )
( 12.02601726690964 2.781408340805856 -0.1429031406342011 )
( 11.729474603852054 2.8965517849343154 -0.1393408769461798 )
( 11.422491718181211 3.0119242690065406 -0.1354674854454927 )
( 11.092551442424172 3.133687827617231 -0.1300012555918524 )
( 10.74644855909337 3.2865502995156985 -0.1229829751274897 )
( 10.405385258411664 3.4913800815934377 -0.1185875280102739 )
( 10.114293703182833 3.787180254308558 -0.1140679055188943 )
( 15.47513539125148 1.188906564760627 -0.1027724581374746 )
( 15.230972345815104 1.2835166905041575 -0.1238399162949459 )
( 14.93604775608168 1.417250225289749 -0.141545480838174 )
( 14.685742875471846 1.498828366753365 -0.1490373025836641 )
( 14.426998425634569 1.5833094825461618 -0.1521745784650483 )
( 14.147717261311367 1.6773361849844504 -0.1525947822758224 )
( 13.86048186697624 1.762123848682513 -0.1513637800527374 )
( 13.557681649164277 1.8782621845623049 -0.1497127861771336 )
( 13.22629302846679 2.0229712075655413 -0.1486543499619412 )
( 12.87663602793824 2.1741132223461634 -0.1468695171381032 )
( 12.513447262409818 2.3442685723820564 -0.144314773674935 )
( 12.147508536439876 2.521731471030625 -0.141404810921067 )
( 11.814974158284432 2.672069050099691 -0.138294974168055 )
( 11.492602439402212 2.794167845763712 -0.1343566028497562 )
( 11.156269862080158 2.904264050278461 -0.1303367047799802 )
( 10.80001736559365 3.029662921420952 -0.1255312462816801 )
( 10.433369438052084 3.1984942911655807 -0.1205945641935836 )
( 10.102845003517666 3.44629916770972 -0.118027969898694 )
( 9.80667207715306 3.799871019500117 -0.1136062178434162 )
( 15.413846658314943 1.1237760384943232 -0.1070072389590059 )
( 15.164133879169189 1.2114397968580206 -0.1260274355671467 )
( 14.860099966426684 1.333716763171262 -0.1418686257814414 )
( 14.608172202468843 1.4152666508198597 -0.1479142399442989 )
( 14.341589121422594 1.497125552624435 -0.1498447395069946 )
( 14.049654530904489 1.5888683558149244 -0.1499466136551788 )
( 13.761829367332377 1.6747900913191958 -0.1485246839035672 )
( 13.445077806546866 1.7817979208630088 -0.1462950383482212 )
( 13.091783405496102 1.924282609234948 -0.1452945008151512 )
( 12.721070212650696 2.080697690827096 -0.1432471729469094 )
( 12.332297198413585 2.2501695040311795 -0.1402383723313084 )
( 11.959857802034616 2.4142847825699736 -0.1376503802725353 )
( 11.607181470375712 2.556320554768609 -0.134825373336984 )
( 11.25503400227588 2.681866033938811 -0.1302375756742216 )
( 10.90010930428898 2.7966829967984626 -0.125255597505863 )
( 10.527117962098924 2.9357371361248075 -0.1209919072973823 )
( 10.149685836173896 3.1287644464253037 -0.1183103654353248 )
( 9.819730366350896 3.4153227748822106 -0.1170915708473011 )
( 9.431687801088474 3.777151244823726 -0.1141857670134585 )
( 15.36252036944464 1.057308904012344 -0.1092213440615073 )
( 15.101871375245317 1.1341840398613174 -0.1266027793081499 )
( 14.790673222241898 1.249408951216112 -0.1410374940376311 )
( 14.534447640413156 1.330116948298654 -0.1459950784445007 )
( 14.261189564032094 1.411085252998987 -0.147092857720134 )
( 13.959810009596929 1.5048407241921375 -0.1465520983645728 )
( 13.660506652832296 1.589040596263267 -0.1447268136390786 )
( 13.33712338266319 1.6868457870806055 -0.1425268711663508 )
( 12.972131965503529 1.8210988987107817 -0.1413350148393945 )
( 12.579458489350827 1.9713833766479976 -0.1393466949653334 )
( 12.17074673578993 2.145546046764964 -0.1368932241327366 )
( 11.784529033970532 2.31321510892678 -0.1350330369433437 )
( 11.407127867737122 2.4466149658899066 -0.1321161356459599 )
( 11.03315872183078 2.564677803549922 -0.1273569663547757 )
( 10.65219671368228 2.6967102944725423 -0.1213510794478374 )
( 10.263828887531668 2.8509088452670923 -0.1166556043118687 )
( 9.88951686746753 3.06924430280384 -0.116372600099709 )
( 9.503899562460685 3.384878654776403 -0.1152597243473466 )
( 8.945184963180088 3.6894114085568095 -0.1130412252988508 )
( 15.312629150851802 0.985989602893783 -0.1103537063356519 )
( 15.047601449572364 1.0603653277724223 -0.1261780340704891 )
( 14.734278657016782 1.1686808137856175 -0.1387600377880032 )
( 14.46873365451948 1.2392909171687143 -0.1425215347058434 )
( 14.188936052000978 1.3215403955322018 -0.1433068827803672 )
( 13.88165994790518 1.419729621076635 -0.1424211910880029 )
( 13.568457121797923 1.4978462691453545 -0.140230063208582 )
( 13.239055995332627 1.5885069222064012 -0.1387213815126398 )
( 12.855111415602323 1.7199736373733638 -0.1372958780481749 )
( 12.44482812362862 1.8676234983370723 -0.1350906362320035 )
( 12.020608112145185 2.036491900868861 -0.1336894539037386 )
( 11.606286173357656 2.2032845034406496 -0.1317505134022644 )
( 11.215704578508808 2.3416005515530114 -0.1283157301614337 )
( 10.83471446173504 2.4579256088498034 -0.124304711382535 )
( 10.428377888787413 2.5973433395593384 -0.119847809705569 )
( 10.016320283812346 2.767605679210444 -0.1175534856014904 )
( 9.635819048636078 3.007757784864027 -0.1162597637509282 )
( 9.158059767278548 3.3299225303847293 -0.1144363886034679 )
( 8.33527797673616 3.517461539613804 -0.1107680111640362 )
( 15.26487767038802 0.9131732280269014 -0.1109585932478857 )
( 14.9993924467731 0.98835250538541 -0.1247767069797804 )
( 14.68271507062283 1.093143386928753 -0.1357314550227644 )
( 14.41256889481478 1.1591691517091254 -0.1389304539356713 )
( 14.123189054861976 1.236883765852197 -0.1393339750399503 )
( 13.802477666700089 1.3232575492455174 -0.137875797796316 )
( 13.479386976693805 1.3997363269960914 -0.1355817757118711 )
( 13.143608292650308 1.4870732626298282 -0.1344335199034097 )
( 12.734268175995448 1.6155052045988136 -0.1331371859705473 )
( 12.306525193640754 1.7675696214980643 -0.1314732867362121 )
( 11.87882036078471 1.9293258626099044 -0.1307797017705531 )
( 11.452380409444132 2.095389765612602 -0.1281461997291326 )
( 11.04601152214905 2.2405943430532447 -0.1246032165741937 )
( 10.638398902938498 2.355233232840908 -0.1207547172666119 )
( 10.220151704750188 2.4923691636210745 -0.1176987091668073 )
( 9.795768449228872 2.677997017997225 -0.117507279854851 )
( 9.35836801858804 2.941918371557376 -0.1168596446463877 )
( 8.808321413780416 3.257650519105668 -0.1171103675668984 )
( 7.554325481979769 3.2253658223662334 -0.1062146299092242 )
( 15.22090621456251 0.8478139604522288 -0.110676029383019 )
( 14.951450823049534 0.9175351650426412 -0.1229699557310991 )
( 14.632528408296576 1.0176106882644056 -0.1327873447461851 )
( 14.36194288019465 1.0834570720235397 -0.1354615987300692 )
( 14.062593151321511 1.1539002777845109 -0.1348113523285847 )
( 13.73528410770806 1.2290763669706917 -0.1332674131456658 )
( 13.403370903960552 1.3096235537148873 -0.132299497334373 )
( 13.04956518712913 1.4017315561215218 -0.1311040712688513 )
( 12.62109248262403 1.5195651613573156 -0.1295791230512137 )
( 12.17163753204694 1.668695028871617 -0.1284776671543613 )
( 11.737028265000331 1.82317956649524 -0.1273601116679986 )
( 11.310791341948953 1.974551985106126 -0.125043019154892 )
( 10.888017891501718 2.115631207596495 -0.1221311626443581 )
( 10.452538968441583 2.238640131608866 -0.1180389327645986 )
( 10.014582742018272 2.3806802144059365 -0.1137063620704756 )
( 9.57485386587966 2.579460939159164 -0.1129207522287499 )
( 9.060667503699351 2.8569777871554485 -0.1144653409592565 )
( 8.305591783633025 3.0940713103732085 -0.1129678156227356 )
( 6.784545669172335 2.895298484476881 -0.097199355614056 )
( 15.184282579452566 0.7809938902598889 -0.1090682278756113 )
( 14.910299272741025 0.8480445986278056 -0.1205766244969267 )
( 14.584329065728276 0.9432470312663536 -0.1296888321977925 )
( 14.31106730157295 1.0024194037331406 -0.1313824014435452 )
( 14.005994134147857 1.0725277133900162 -0.1297543550519457 )
( 13.67862788017966 1.1508452207827593 -0.1287633672438422 )
( 13.343146679840306 1.2299115182515017 -0.1293680852165151 )
( 12.967243883716115 1.3165497042408136 -0.1280950368951 )
( 12.52724193437196 1.4297800066508262 -0.1264857467443888 )
( 12.06903282995582 1.573592149606596 -0.1258342858922496 )
( 11.61604549412528 1.722103912777816 -0.1247565749519607 )
( 11.165961863225633 1.858272647589534 -0.122643586831379 )
( 10.723790009639774 1.9866966290452688 -0.1204637659246524 )
( 10.272396920596266 2.1128505559142003 -0.117900855317515 )
( 9.81930124712378 2.267893150536949 -0.1140583945920219 )
( 9.345711289871469 2.4927453120848373 -0.1137159025629975 )
( 8.76862229455819 2.7628798658968527 -0.1130248991236454 )
( 7.74687055229254 2.8578520427718908 -0.1051821858729282 )
( 6.11503523284021 2.5785197399809143 -0.0896869807745104 )
( 15.15363765342257 0.7112345025055756 -0.10719350330628 )
( 14.879507710118173 0.7782349577893587 -0.1172860563499951 )
( 14.544814463373068 0.8707330954293867 -0.1256412216935271 )
( 14.263837231409576 0.9235893161428356 -0.1266985726193887 )
( 13.952226131382432 0.989113413662174 -0.1252096178782142 )
( 13.620935929105157 1.066309923889659 -0.1245929993459361 )
( 13.279565751810054 1.133159222480197 -0.1248494463156494 )
( 12.891559091689624 1.2167511995451894 -0.1239300642954717 )
( 12.450218564927416 1.3393494427158008 -0.1231533208874405 )
( 11.984489951410383 1.4777118206765407 -0.1234370084268969 )
( 11.508065168661595 1.623458814595948 -0.1234388422859761 )
( 11.03397712423776 1.7472310151023918 -0.1208131701482326 )
( 10.573159923222851 1.8644326183697693 -0.1194852478474992 )
( 10.095591579459995 1.9913857879212236 -0.118383156413446 )
( 9.626883632026288 2.1537480974033105 -0.1162894116381289 )
( 9.099005455741016 2.3922621621621944 -0.1171008973306625 )
( 8.440404064456187 2.633728207720581 -0.1145650567737548 )
( 7.270519415110041 2.6212029662629224 -0.101181587251693 )
( 5.491041638341778 2.254586682517034 -0.0820191679799086 )
( 15.12656664609682 0.6507983249642031 -0.1056355621351675 )
( 14.850862916613158 0.7120129038604669 -0.1141688375733421 )