/*--------------------------------*- C++ -*----------------------------------*\
| =========                 |                                                 |
| \\      /  F ield         | OpenFOAM: The Open Source CFD Toolbox           |
|  \\    /   O peration     | Version:  2112                                  |
|   \\  /    A nd           | Website:  www.openfoam.com                      |
|    \\/     M anipulation  |                                                 |
\*---------------------------------------------------------------------------*/
FoamFile
{
    version     2.0;
    format      ascii;
    arch        "LSB;label=32;scalar=64";
    class       volVectorField;
    location    "0.0009";
    object      U_LES;
}
// * * * * * * * * * * * * * * * * * * * * * * * * * * * * * * * * * * * * * // 
 
dimensions      [0 1 -1 0 0 0 0];
 
internalField   nonuniform List<vector> 
13597
(
( 17.515979994210355 1.9484541576864869 0.0363705866539129 )
( 17.522046884245153 1.9935296146000463 0.0422205545974494 )
( 17.54638119470221 2.08194488663802 0.0543083244847545 )
( 17.584259053767934 2.193271146415109 0.0694974215405339 )
( 17.615966266299996 2.2862742425353235 0.0824625182689186 )
( 17.637357858126762 2.360794917726556 0.0933296458588193 )
( 17.66212377451558 2.432517905366583 0.1037966417619379 )
( 17.688841795540185 2.5090315627123183 0.1146380666146778 )
( 17.717848980111317 2.5847930273409125 0.1249876139913478 )
( 17.748732819809348 2.6597088311058217 0.1346601582947012 )
( 17.779644604684812 2.7435404542670145 0.1451382408261224 )
( 17.8159602317981 2.8269639350932487 0.1549525896545328 )
( 17.85465392613512 2.909032300049724 0.1635259999861378 )
( 17.892453404864625 2.996628279652496 0.1730545591435644 )
( 17.930412041582336 3.087719991384147 0.183993824204414 )
( 17.970506469003492 3.1788867208305134 0.1948688319353073 )
( 18.013135742781365 3.266950374528728 0.2033916677060593 )
( 18.056175928465468 3.3562282076735364 0.2114224363768988 )
( 18.10014931812553 3.449763989586131 0.2203927319430841 )
( 17.366787247198232 2.005406622963238 0.0371172561028185 )
( 17.351825594104778 2.0642646229033974 0.0451158644341333 )
( 17.350452283406128 2.180087540533565 0.0636439366774379 )
( 17.353569434235563 2.309036083555299 0.0860754349767703 )
( 17.349418022414753 2.406751957288483 0.1035001985355534 )
( 17.341800542350832 2.4952596771377493 0.119214886235488 )
( 17.33930286827804 2.582818915688557 0.134636789987503 )
( 17.336758430742535 2.674495198364064 0.1505517746814129 )
( 17.33821696062586 2.766548041256088 0.1661572765128092 )
( 17.340744621210238 2.858297163249862 0.1806341927070977 )
( 17.34205393671192 2.960879005099048 0.1964965655138123 )
( 17.343483304378736 3.069696376510493 0.2123087447772692 )
( 17.344184894809544 3.18005350714795 0.2272483793365342 )
( 17.348218748900486 3.294650072706088 0.2419539095062565 )
( 17.353795726051313 3.4077453279046512 0.2560210523519901 )
( 17.362243183108955 3.5155391193890617 0.2682032869198507 )
( 17.37208728917486 3.6153128230411 0.2778817889414774 )
( 17.380296646159415 3.718376462922085 0.2867958807344723 )
( 17.393761250493363 3.821332284197375 0.2947561132752321 )
( 17.212907785058313 2.0458051251707445 0.0396531648334515 )
( 17.172047816455468 2.1137221033925884 0.0516283323307887 )
( 17.140306253357878 2.245193102661926 0.0765040850820357 )
( 17.10692498766709 2.383355917817428 0.1042032177975541 )
( 17.068238097657915 2.4851106218625763 0.125240073959104 )
( 17.03599721919464 2.583984264946623 0.1451583547633399 )
( 17.00930948419844 2.684931657487044 0.1637783965126886 )
( 16.97613447804903 2.7878295388760885 0.1814472704054249 )
( 16.947560928390654 2.894823518775934 0.19925233700554 )
( 16.9235121695004 3.0105003828981305 0.2158936594341204 )
( 16.897123717605474 3.132998554897175 0.2316372322788965 )
( 16.870519490754077 3.2649293885043518 0.2465996240325095 )
( 16.84558638101191 3.401734939817108 0.260053246667458 )
( 16.824928466671444 3.533795466042182 0.2709194145430136 )
( 16.807974359844604 3.655596028465469 0.2787556393122585 )
( 16.79460821047913 3.764379217936584 0.2842712987165173 )
( 16.780005067970862 3.862760639488588 0.2873902675999227 )
( 16.76458944477558 3.962109387621399 0.2887074497576748 )
( 16.758310052380953 4.065285832362559 0.28895028461772 )
( 17.054258742535165 2.0686490920146987 0.0468131877795331 )
( 16.988766622805645 2.141946752010876 0.0638336392011948 )
( 16.929525341921234 2.279307048612659 0.093236381731365 )
( 16.864732066225503 2.4218759075367817 0.1241477724679444 )
( 16.796379599742437 2.5297531557176343 0.147616391415601 )
( 16.7373661864688 2.635350299261682 0.168002247352066 )
( 16.67966371982774 2.7477537729010906 0.1866505387274567 )
( 16.61943782669265 2.863908326786509 0.2025942256757326 )
( 16.567971099940703 2.9854837190055554 0.2171928830200045 )
( 16.521785727552935 3.116739353186965 0.2297040653171262 )
( 16.472758481788023 3.2567887668053026 0.2389997162213883 )
( 16.429307389747823 3.4037663495942363 0.2462879839563264 )
( 16.391539240490165 3.5512936739675376 0.2505004058916758 )
( 16.35337974494605 3.692868877743686 0.2516468621203452 )
( 16.31645450215883 3.815674389531626 0.2498609137955317 )
( 16.283006201755313 3.921275311817204 0.246600262633767 )
( 16.249972407281874 4.017554450753629 0.2419958786805548 )
( 16.214866754873363 4.115422302239209 0.235627897720383 )
( 16.184083042219516 4.2240966955583525 0.2287605751534821 )
( 16.89998422790759 2.0744657707618823 0.058270814774815 )
( 16.81791745586803 2.152356853388829 0.0803317299456699 )
( 16.731102619988032 2.295786756611109 0.1130574489265149 )
( 16.63686393733653 2.4393127620211263 0.1430091540835605 )
( 16.546503785801864 2.5504706550333767 0.1645057331133551 )
( 16.464326308672085 2.662336638337824 0.1819037544588603 )
( 16.38141372622226 2.784018136958549 0.1960480708532042 )
( 16.300881124126935 2.909825491311168 0.2067961246492804 )
( 16.23010629672054 3.039313844032302 0.2139765158253556 )
( 16.161895774368396 3.1795947387536363 0.217676687601737 )
( 16.09262694119174 3.3342861756973257 0.218485577801225 )
( 16.028057294071942 3.4935368749643363 0.2166761749506551 )
( 15.966956639338306 3.648224359004373 0.2115077810100972 )
( 15.905333593697767 3.793005338849382 0.2043569110942297 )
( 15.843167513878893 3.912474863222414 0.1956166140801903 )
( 15.782936687849991 4.019934166036876 0.1865714659657541 )
( 15.725564109027887 4.1230164885626 0.1771495211436477 )
( 15.66871567792938 4.226692099218862 0.1669135903515665 )
( 15.612305844214228 4.343054703359802 0.1563638480653842 )
( 16.75729901225007 2.062526693509068 0.0731081808327054 )
( 16.658843054773715 2.1453700202082486 0.0980504809479775 )
( 16.543472156992834 2.2971094823830125 0.1315856267137071 )
( 16.426627277828924 2.4412297208597096 0.1577466079722229 )
( 16.320272335751977 2.554976566751294 0.174026357984513 )
( 16.22098681412428 2.672887926039679 0.1862719518899068 )
( 16.12346776531448 2.798071420033418 0.1936029366528712 )
( 16.02437710474446 2.9282557746700126 0.1968987851307537 )
( 15.926399272961016 3.0652397628842927 0.1960956267079904 )
( 15.8317588782436 3.2189423270355824 0.1915524957444959 )
( 15.741650882318602 3.381761136989593 0.1848099912285531 )
( 15.650400816244616 3.54535055363494 0.1752713102639439 )
( 15.562454341436505 3.704944302874887 0.1637794624013415 )
( 15.477493285590308 3.849772328803847 0.1521132209106162 )
( 15.39037442350005 3.970786405999311 0.1400350825792641 )
( 15.309166705225897 4.07778724977856 0.1286749959387134 )
( 15.229517712194667 4.181764465742988 0.1175209248560394 )
( 15.149049263359611 4.287574776315828 0.1065593007244926 )
( 15.06900793146683 4.407705773494581 0.0956532859793155 )
( 16.619615650834323 2.0379533410276363 0.0900126609723767 )
( 16.505121921246054 2.127454576322952 0.114993740234695 )
( 16.36906777349679 2.285305594368939 0.1445184893453292 )
( 16.235919299786485 2.427619613266574 0.1651529029091964 )
( 16.116029086043124 2.542771856092616 0.1757477824050247 )
( 15.998085038807524 2.6629797745330004 0.1812031727477973 )
( 15.882146319339215 2.7920635780151546 0.1819746726643243 )
( 15.764514092971822 2.928084452662577 0.1780196010466972 )
( 15.64220456405349 3.0699162434827194 0.1704384748596728 )
( 15.52684051443484 3.2293806261134392 0.1603997983095545 )
( 15.411714089648452 3.397660999747034 0.148097918469259 )
( 15.291636352816644 3.566513977445239 0.1339670468202554 )
( 15.178573300568294 3.725641275445266 0.1199661229676121 )
( 15.069301659729208 3.867648037491615 0.1070165474797048 )
( 14.958511539146036 3.9926240325878166 0.0940983013557328 )
( 14.85361612986461 4.098086284428136 0.082259226404495 )
( 14.751926742928733 4.199894077769797 0.0715810429882991 )
( 14.647861877970834 4.310208278393032 0.0608316930299434 )
( 14.544219190083815 4.433916579497946 0.0500614525384333 )
( 16.494093666124 2.005381085324096 0.1055365609125374 )
( 16.36507780142692 2.097135767792645 0.1284174924343606 )
( 16.21213632612346 2.2573844286135243 0.1520303674714873 )
( 16.06336140992967 2.399013432938393 0.1662507861167399 )
( 15.927499856799166 2.5160584525554515 0.1708948590376384 )
( 15.791903554062852 2.6408163938694647 0.1698787268223709 )
( 15.655063742452958 2.775206718346504 0.1642645792995279 )
( 15.518039791154845 2.9119735287070103 0.1550430145020452 )
( 15.37294631774218 3.055624583834592 0.1427980838679721 )
( 15.233838498121033 3.220589708087428 0.1292001143979964 )
( 15.09066328999272 3.3930009359157607 0.1138415804476245 )
( 14.945955948771996 3.565585373210832 0.098197134733031 )
( 14.808135765397274 3.7255208598013008 0.084226905045687 )
( 14.670548677682838 3.862243780748925 0.0707902828769196 )
( 14.541390216995014 3.981017404670743 0.058426461503589 )
( 14.414716600001158 4.086651603176551 0.0469649885976698 )
( 14.29006400655024 4.1921848390875045 0.0363942613498909 )
( 14.164870732222706 4.308425619556432 0.0259129271735125 )
( 14.040187286449964 4.436903800099319 0.015611990746121 )
( 16.380229201243733 1.960297602499976 0.1179386956233348 )
( 16.236265471823398 2.0504391258414003 0.1368977245049967 )
( 16.066034248281394 2.213047595419671 0.1544528834701358 )
( 15.903970158795996 2.3558077486202715 0.1628263107393633 )
( 15.74933944450694 2.4786702368458084 0.1620864028718026 )
( 15.598004832429762 2.6051981377517843 0.1555885332260173 )
( 15.444215598219827 2.738453794632769 0.1449548344371668 )
( 15.28794160984626 2.881347953812308 0.1326328674944751 )
( 15.123400103025247 3.0314276695443474 0.117617030867452 )
( 14.951214630641417 3.1960479000337045 0.1010346554049717 )
( 14.781184420010517 3.370737089032403 0.0848279067526761 )
( 14.616579892148687 3.5424205803734603 0.0696269867550273 )
( 14.450672134606435 3.701602572161715 0.0556486730310366 )
( 14.289446022338913 3.837485461675629 0.0422381975936498 )
( 14.143122688187466 3.952091186111249 0.0305695785864664 )
( 13.995636669916056 4.059840259575829 0.0193148905551628 )
( 13.84852333654204 4.167584109098996 0.0088504850745434 )
( 13.701701668765905 4.285967190390585 -0.0007061771179866 )
( 13.553706583183358 4.419158400456348 -0.009786095734174 )
( 16.271015785564842 1.9113409930824776 0.1276302431136809 )
( 16.112781561517206 2.00682956723496 0.1422886479333016 )
( 15.927992201956926 2.169631321058802 0.1535814034460989 )
( 15.753536691263974 2.3081640888459565 0.1558302732918151 )
( 15.584356125222271 2.4360497808632418 0.150504533141196 )
( 15.416869730787845 2.5599521227942024 0.1399573762337693 )
( 15.241896064745864 2.688101773494626 0.1258580004499577 )
( 15.059387864174354 2.832672622899993 0.1101374354615869 )
( 14.875952600967151 2.983732276278208 0.0936332688363631 )
( 14.682036754018592 3.14929039582701 0.0769627270307312 )
( 14.488881424352147 3.330263918415368 0.0609169055556101 )
( 14.302221715913952 3.505176482219205 0.0463451551083628 )
( 14.115148142134888 3.659898758796052 0.0326131423836055 )
( 13.937041289800614 3.7952830872097096 0.0198071271673531 )
( 13.768119823196464 3.910112292058192 0.0086506604756275 )
( 13.59758733874012 4.016460141816744 -0.0017986835747377 )
( 13.42558592909668 4.124191351812865 -0.0113117500231187 )
( 13.256214965358383 4.243696323167999 -0.020197616527066 )
( 13.088020396601332 4.382939262856016 -0.0291129530049084 )
( 16.172288262077316 1.862252092531221 0.1338385235654171 )
( 16.003641161222202 1.9641407285286336 0.1437420966304681 )
( 15.7993278952386 2.1245651286035034 0.1495391435907281 )
( 15.613627227650078 2.256444970081501 0.1466999620348817 )
( 15.431244857450237 2.381804739239044 0.1374537736641029 )
( 15.243210358277445 2.504604908418082 0.1240958006138228 )
( 15.048041960225154 2.628672795915324 0.1077827978365637 )
( 14.846864288284484 2.7673455295085723 0.0901749035357856 )
( 14.641503730159306 2.92270682736494 0.073245973489334 )
( 14.430861889919136 3.091967534437557 0.0574340839619169 )
( 14.216742385856508 3.2731089126665567 0.0415086359974625 )
( 14.002718034301884 3.4538395724414728 0.0268118440307501 )
( 13.800800057894408 3.606224603142842 0.0141217321936597 )
( 13.606397432282538 3.740412577534272 0.0022537184626691 )
( 13.41105473494044 3.856579086862073 -0.0084355980394019 )
( 13.214980344662573 3.961011952790624 -0.0183171444984614 )
( 13.020849291913208 4.069959552457848 -0.0276915276285151 )
( 12.8341868856912 4.193326311482785 -0.0369281904667927 )
( 12.64684318770978 4.340366358699291 -0.0461335120337553 )
( 16.078908570422218 1.8078856655560187 0.1365110512158891 )
( 15.896971952035376 1.914167127666284 0.1417172154144047 )
( 15.676131518786525 2.0752125206912577 0.1427161505228087 )
( 15.47984393853419 2.1996938301452333 0.1361988692997594 )
( 15.282319500702371 2.317475548995994 0.1239863159469814 )
( 15.075441482082216 2.439612634894183 0.1087177434999499 )
( 14.86717275119056 2.5683062208005047 0.0915683297097395 )
( 14.648771014164629 2.708024881335287 0.0737962794596858 )
( 14.423508924639185 2.865000275771568 0.0566679005462698 )
( 14.193451721618407 3.0330233129466078 0.0405409654593253 )
( 13.95939414234461 3.210299648533853 0.0253624433097051 )
( 13.723950483978024 3.386236725020287 0.0114225044987811 )
( 13.49939372804876 3.5416725396424784 -0.0009420327864698 )
( 13.282220685802756 3.681387083243488 -0.0127022907421322 )
( 13.062833236102552 3.796881413002054 -0.0233090953188594 )
( 12.848514241518064 3.897899523267759 -0.0331359678926207 )
( 12.640719712467904 4.008279577994045 -0.0425868320150466 )
( 12.437237645090407 4.141506678689937 -0.0516745559771761 )
( 12.230688591200613 4.298964336444058 -0.0597587773793497 )
( 15.988224278435206 1.74402384665352 0.1363628149887931 )
( 15.793376551948544 1.8533928507375697 0.1377305973945116 )
( 15.56354175682831 2.0169505812235697 0.1345899171004575 )
( 15.353295907058431 2.141245481706692 0.1256269158419911 )
( 15.142159275275723 2.259806433170757 0.1115830537327124 )
( 14.921562762315071 2.381353567052202 0.0947774487549222 )
( 14.69795330262558 2.509577910369987 0.077249831782803 )
( 14.459780537419624 2.646344169402057 0.0594981486730236 )
( 14.215111425260398 2.798052050315919 0.0422166239417384 )
( 13.969290765800858 2.96764369657614 0.02656172777306 )
( 13.714052212851117 3.149633986603121 0.01201851951838 )
( 13.459890131510178 3.321625745978431 -0.0017015499226743 )
( 13.210164658652968 3.4763895803991547 -0.0138446436056074 )
( 12.96494553679936 3.615200441570862 -0.0257279888919038 )
( 12.731439058393947 3.724614035982691 -0.0365557235372807 )
( 12.508294748184904 3.827008960963653 -0.0458581599774027 )
( 12.285123312954315 3.944414160863997 -0.0544906005072908 )
( 12.059954355418691 4.085372054816101 -0.062233539388315 )
( 11.82604900822405 4.256393405792769 -0.0682683286755873 )
( 15.904095900810562 1.6733411885122895 0.1334372405050594 )
( 15.702194669381452 1.786976376958741 0.1316936174795708 )
( 15.459105760125556 1.9522131557139024 0.1253468831731413 )
( 15.235429109385622 2.077513315306133 0.1144518008064303 )
( 15.00976859372021 2.1968796774840365 0.0994668806487215 )
( 14.77915549437526 2.313993903752442 0.0819707160329231 )
( 14.540560689015631 2.439171610996565 0.0645922821183734 )
( 14.291530473312791 2.5742903505196524 0.0478803544208827 )
( 14.02821017265676 2.7224454408102665 0.0310393026781694 )
( 13.760225247022843 2.892696855082676 0.0152432244889624 )
( 13.483864299356291 3.077134408988226 0.0003832545277893 )
( 13.205484623433748 3.2538747212821804 -0.0134068266558633 )
( 12.935061969785531 3.4106279246768003 -0.0252747685489759 )
( 12.674945772272224 3.5404305377127323 -0.0366788050702068 )
( 12.42828520712859 3.646058024013042 -0.0469664340445068 )
( 12.186512462462249 3.756677260053081 -0.0556115307362922 )
( 11.9429832717228 3.887454232052896 -0.0635002277750847 )
( 11.689908583858228 4.03146262961723 -0.0695730357126945 )
( 11.419650077827116 4.207848620436731 -0.073913442653672 )
( 15.826103863276206 1.6055082149689948 0.1286154607846081 )
( 15.613340963230591 1.723919565122511 0.1239622633141484 )
( 15.34940835460112 1.8915805072888805 0.1153051594348416 )
( 15.115364091289418 2.0097274843740696 0.1025434584884391 )
( 14.882071260378144 2.1239860672469777 0.0876279680052361 )
( 14.643841639545712 2.239265730651597 0.0710588592835358 )
( 14.390840096511248 2.3612468692262376 0.0539510344817235 )
( 14.125736132824295 2.496822632349796 0.0376489594603107 )
( 13.849805854386108 2.643444685989844 0.0213899676930532 )
( 13.562547606580695 2.8098929146531333 0.0053398496475793 )
( 13.261889577160858 2.9956787050196088 -0.0100462633390932 )
( 12.958699323591269 3.173071372849429 -0.0234666220430274 )
( 12.66773976193296 3.3322874956267485 -0.0352499188846695 )
( 12.398568088322596 3.459346701008608 -0.0461726726204041 )
( 12.140042582567972 3.5662990926164 -0.0553833250691933 )
( 11.878083082224803 3.682993033000068 -0.0633543122868833 )
( 11.60537300627071 3.8199457724494392 -0.0701980506969103 )
( 11.318464043244283 3.9760379517803166 -0.0749160715814375 )
( 11.029605538984477 4.174157415185064 -0.0796162602755343 )
( 15.75180383801322 1.5412301894663651 0.1223648309319682 )
( 15.528162215877188 1.6612559070300754 0.1158283457370724 )
( 15.250542109293225 1.8275461151305357 0.106014787272047 )
( 15.005759989711132 1.9378192895625947 0.0918457542001634 )
( 14.765101002634552 2.043667527812773 0.0766636986027857 )
( 14.517325860757182 2.163553310456965 0.0613887959822698 )
( 14.25243054380304 2.2806776809314626 0.0447096601104933 )
( 13.96865037964638 2.408957533016733 0.0280604410311263 )
( 13.675783592025542 2.5597478611206177 0.0120838127044241 )
( 13.370841146626114 2.722732959661056 -0.0034602922734056 )
( 13.042987991433671 2.912267322148155 -0.0187734542929664 )
( 12.714506072565705 3.0945995130223785 -0.0326600783679005 )
( 12.41468745935355 3.246833324644383 -0.0440520708863162 )
( 12.139874155098546 3.371753601840922 -0.0533253313889 )
( 11.866069127311796 3.484987876178176 -0.0618453937282518 )
( 11.58034011579347 3.606984233917612 -0.0694012156810093 )
( 11.274992461664754 3.748166820527038 -0.0742802383485138 )
( 10.959572874203198 3.9239027747194943 -0.0798914093581059 )
( 10.680130651930432 4.168770001779938 -0.0876883438250363 )
( 15.68184095746265 1.478082262756913 0.1149536680642575 )
( 15.445014359572845 1.5954742358317495 0.1072467956116735 )
( 15.15892556319983 1.7613093872755672 0.0969160838876086 )
( 14.910535067539914 1.868146230994816 0.0825735393756978 )
( 14.6597159169488 1.9701661864139688 0.0674120221193178 )
( 14.396117639188098 2.086954692968041 0.0520183972345689 )
( 14.118276982736823 2.197012427660416 0.0354815825997168 )
( 13.82795287296417 2.323333651504012 0.0194412724787708 )
( 13.5169439149738 2.475802124385273 0.0037417552544107 )
( 13.187647625316634 2.6326494238404656 -0.0118155515867028 )
( 12.847717247861045 2.81726971001322 -0.0260391594513515 )
( 12.50210771789054 3.012124993817591 -0.0394324698443792 )
( 12.189953412397742 3.163421551530069 -0.0501401823824244 )
( 11.899546267910416 3.282788696574404 -0.0584830430273604 )
( 11.600257308217778 3.401373979228139 -0.0673339944807635 )
( 11.28061585757024 3.5254143621985605 -0.074425342479808 )
( 10.949579986137854 3.679721473981323 -0.0798769092762385 )
( 10.63382087399565 3.8875333369163623 -0.0881282467594931 )
( 10.381033337746048 4.186292882780248 -0.0962041629581352 )
( 15.612124033563031 1.4152608865786638 0.1066620702120002 )
( 15.366443502535972 1.5296766992849948 0.0983768172470156 )
( 15.07263091845245 1.690380448110731 0.0877293678726246 )
( 14.822634964519654 1.7933655200341925 0.0736373823048248 )
( 14.56381937816018 1.897974941827734 0.0590685056987821 )
( 14.28597368548636 2.0105672900442664 0.0438858270886046 )
( 13.998473420034507 2.1096551158154857 0.0275746165361458 )
( 13.695987864280738 2.2371696846944573 0.012160298136784 )
( 13.365999130149646 2.3917626378493893 -0.0033413410387215 )
( 13.018542521952453 2.550854456247457 -0.0186301288291287 )
( 12.659463834264248 2.726450379489158 -0.0322396021946729 )
( 12.29994012546254 2.908555784850562 -0.044567760067762 )
( 11.974518705417973 3.0639170442613746 -0.0547681243740475 )
( 11.660234463879052 3.190939556744865 -0.0634244015198576 )
( 11.333465250017891 3.3056165491887843 -0.0718673285871023 )
( 10.990011912453134 3.4346657130211566 -0.0787200164154206 )
( 10.64436526878068 3.6096598211499935 -0.0865209658938075 )
( 10.348393183049238 3.86636415452998 -0.0962947039809522 )
( 10.092398468771206 4.216541690530407 -0.1030331679945974 )
( 15.54740112776202 1.3500846733107648 0.0982543145243707 )
( 15.295713390833091 1.4605926781607717 0.0900220088878325 )
( 14.991482136215344 1.6127449131774658 0.0788799708346345 )
( 14.739215330542836 1.7161987170686734 0.0651719241165077 )
( 14.472590555669557 1.818397324753552 0.0513032601670298 )
( 14.18090603162748 1.928923356409081 0.0363296428252201 )
( 13.892209243066873 2.028129898691323 0.0206882560093884 )
( 13.575199576701095 2.1458203946016914 0.0054993931694484 )
( 13.223329254771771 2.298816145034672 -0.0103169729380005 )
( 12.856140990608258 2.463832585323422 -0.0250389077854539 )
( 12.4723241291075 2.639815336508439 -0.038256855163999 )
( 12.1069203589058 2.8099357356138586 -0.0502216448833304 )
( 11.762940131025305 2.9580943664154367 -0.0605121225085091 )
( 11.420978699108485 3.089903057147439 -0.0685769700087674 )
( 11.077540181625658 3.21079147701364 -0.0752954037735506 )
( 10.721079315799102 3.356984616042734 -0.0822534692064471 )
( 10.372066513191042 3.562090328466592 -0.0922793817037507 )
( 10.0832118407019 3.860582529282487 -0.1026791576358839 )
( 9.729598913957638 4.206185483360167 -0.1091002020191731 )
( 15.491528684870609 1.2846344676182686 0.0895819963459756 )
( 15.22891899177558 1.3868665825892683 0.0811684966904088 )
( 14.916280152423775 1.5339319313631752 0.0701550073812633 )
( 14.658648609925056 1.637275647667022 0.0575137832866025 )
( 14.385131033596574 1.7382339839826977 0.0442888394796861 )
( 14.083552428623076 1.8501412053567097 0.0293359810142095 )
( 13.783164927875577 1.9480436960785144 0.0144498405186336 )
( 13.459376371980037 2.0565050694233977 -0.0002255397296697 )
( 13.095955841876435 2.201125480843714 -0.015816426763038 )
( 12.70690695372475 2.3606687945317213 -0.0306752668303062 )
( 12.304066795295816 2.542963216488212 -0.0442043664116123 )
( 11.926677680206272 2.717929485925201 -0.056274124483465 )
( 11.559758711867566 2.8585659439482614 -0.0664834608366401 )
( 11.197365065508627 2.984236072758989 -0.0739927355599818 )
( 10.830900643508846 3.124684939891611 -0.0793249142698526 )
( 10.46282770117226 3.2907779258063306 -0.0866260149736991 )
( 10.123552832188738 3.5266652937193617 -0.0986336145121009 )
( 9.782984683519532 3.851499196827861 -0.1067742321048382 )
( 9.249548022332386 4.124243417813228 -0.1115563125934752 )
( 15.435991988414695 1.2147065510599635 0.0801977260408715 )
( 15.169879829513404 1.3166795294105669 0.072491631221289 )
( 14.854449569757191 1.4574146774662455 0.0625077900650724 )
( 14.586244434233365 1.5512468582680536 0.0504346523843268 )
( 14.305355519982792 1.6533300877167174 0.0374819235315236 )
( 13.99801085676386 1.768817108428724 0.023058613007457 )
( 13.683961058016386 1.8616125196517632 0.0089746767146551 )
( 13.354016880098047 1.96365667085844 -0.005102523519908 )
( 12.97195579320462 2.1053968615186607 -0.020394942238995 )
( 12.565340854747523 2.262644137978436 -0.0355122155481368 )
( 12.147710741110023 2.4417811769227824 -0.0496809941140036 )
( 11.743930953664524 2.617946045941295 -0.0619015815821919 )
( 11.365513066450214 2.764419335133593 -0.0708014999269788 )
( 10.996453637753325 2.8889467519220573 -0.0778369948502607 )
( 10.60722327246633 3.0400754162808465 -0.0846793277627332 )
( 10.22109822348478 3.229086107475034 -0.0941852064146519 )
( 9.87989477781525 3.491510925477129 -0.1040347260974927 )
( 9.446705368132994 3.816925446684541 -0.1095678839319789 )
( 8.634619279369936 3.950602014064642 -0.1112685600948441 )
( 15.38199524557912 1.1434845911511904 0.0708036363648478 )
( 15.11475343151011 1.247520698038296 0.0644526547371704 )
( 14.796316313479515 1.38540148371769 0.0558706927868415 )
( 14.52330444589322 1.4746533414192378 0.0444460928890404 )
( 14.231932972847622 1.5725542011671465 0.0318665705863677 )
( 13.910700386934778 1.6764578215139074 0.0173725983796363 )
( 13.587262600957972 1.7677023322707257 0.0033957031503383 )
( 13.251079754251508 1.8670105824211207 -0.0106899714947902 )
( 12.8439313265063 2.00670792230679 -0.0260688237702146 )
( 12.42085147371604 2.1689675608645698 -0.0406831429477396 )
( 12.000591644342762 2.3418659198724128 -0.0544287220672831 )
( 11.585787203768444 2.5182313258107536 -0.0659328641499953 )
( 11.192731847820976 2.672458296160595 -0.0739046951549059 )
( 10.797468789771523 2.798153347826436 -0.0803633780990827 )
( 10.39758022164756 2.95180898867512 -0.087876927028135 )
( 10.00485055257316 3.1634346582084647 -0.098737055154363 )
( 9.610453031631604 3.451896295178305 -0.1079600287871972 )
( 9.10006783514376 3.763487018124071 -0.1143269043462522 )
( 7.835585788306339 3.6477763498846505 -0.1066855038655789 )
( 15.331901718363971 1.080143312407684 0.0617415377429006 )
( 15.059191400628784 1.1800402146206723 0.0564728634636727 )
( 14.739003192714344 1.3136383011503576 0.0493022484924896 )
( 14.465478211532552 1.4026819186247568 0.039261381246417 )
( 14.164223685140094 1.4938107975221655 0.0269359017112506 )
( 13.83586882457576 1.5859483431359491 0.0126181031225866 )
( 13.50393898010385 1.6805229705166025 -0.000845406205871 )
( 13.15068709138051 1.7852672694284406 -0.0150807008604001 )
( 12.723803876273578 1.9158256628372328 -0.0311996211925852 )
( 12.279694773003955 2.076467832498042 -0.0456512323485318 )
( 11.853357252478338 2.2425977386820097 -0.0582094089452829 )
( 11.43857392806654 2.4054390026810326 -0.0691752640156865 )
( 11.028854281734713 2.556896594810345 -0.0770542119754669 )
( 10.607738732737207 2.694553366305294 -0.0837240687889312 )
( 10.191823022847824 2.860318169627032 -0.0899619712486543 )
( 9.787476827833204 3.0907407736685086 -0.0987423863940278 )
( 9.317402233398353 3.3925680342808087 -0.1086416699139904 )
( 8.591215180303374 3.609702292431829 -0.1119374572892243 )
( 7.044591183206942 3.307419562356424 -0.0970838617072811 )
( 15.288676417707356 1.014595365750959 0.0531262502803598 )
( 15.011363641207105 1.1133671045568112 0.0490632778288779 )
( 14.684273399806631 1.2433180251359996 0.0433137018946714 )
( 14.4080704310637 1.325529891680026 0.0345398069526683 )
( 14.10133724176109 1.4159855269865729 0.0227275547259279 )
( 13.772991734124384 1.5109880188394311 0.0082432032963136 )
( 13.43797348588779 1.6039921817437028 -0.0048900867899187 )
( 13.062533593707132 1.7035798418292378 -0.0187409010134347 )
( 12.623545546148131 1.830494558134702 -0.0351059128302066 )
( 12.171179114310508 1.9867418049172132 -0.0491109494007835 )
( 11.72715672574684 2.147418300778485 -0.0613971424633683 )
( 11.288138256390114 2.2973960685438715 -0.0726902801512242 )
( 10.858500432518904 2.4388005160738664 -0.0814324145819991 )
( 10.423880853227717 2.5834950829323597 -0.0894333568384969 )
( 9.99708009590111 2.76942880458839 -0.0957819146663671 )
( 9.562673317113422 3.030052320887262 -0.103574076480932 )
( 9.02715746118887 3.322393607942499 -0.1099362656893108 )
( 8.018139770904842 3.3781883661855763 -0.1052923164324628 )
( 6.35147005109699 2.9828446188685422 -0.0897921602939441 )
( 15.250479473238611 0.9464577595129104 0.0452497001563497 )
( 14.973591114737822 1.045317265292157 0.0427954041139671 )
( 14.638212803354364 1.1739029127419378 0.0387031788887571 )
( 14.354738164791767 1.2500914480507663 0.03061195967579 )
( 14.040977354782182 1.3353463633744571 0.0186292853305844 )
( 13.708794483550784 1.429792992206336 0.0046010165257277 )
( 13.36736944366363 1.5109186224987106 -0.0086161991923278 )
( 12.979676087905494 1.607353726164377 -0.0225396820441168 )
( 12.540635488132658 1.743966325208103 -0.0381651977396361 )
( 12.081135305020672 1.8958220091443976 -0.0524382773333231 )
( 11.614333567674624 2.0551516002440358 -0.0658093682471903 )
( 11.150516395051785 2.194230517138189 -0.0768199139032092 )
( 10.702224627838024 2.3265533208355857 -0.0863957964270917 )
( 10.244100251967836 2.477418013356554 -0.0951383792627109 )
( 9.803740246916115 2.675635136458415 -0.1014783682981786 )
( 9.316511617359838 2.9527330050720284 -0.1095840019898878 )
( 8.694520787660428 3.2110055323037603 -0.1137888453342379 )
( 7.523204998948012 3.143168710385851 -0.1028119335898672 )
( 5.699217430767678 2.6465357306539845 -0.0833391514269334 )
( 15.21716996274701 0.8880093580766092 0.0386500739242481 )
( 14.93868912653782 0.9815751050498795 0.0377076966541563 )
( 14.597982711129932 1.1025871056362853 0.034423055560567 )
( 14.307977659878862 1.17749167271801 0.0262785869683744 )
( 13.9881040063292 1.254956894399063 0.0143573135464791 )
( 13.6537106467554 1.339517535803178 0.0014046127639342 )
( 13.298199957397015 1.4141659853529462 -0.0118805680109516 )
( 12.901270856459282 1.5172361785310382 -0.0257113082540438 )