/*--------------------------------*- C++ -*----------------------------------*\
| =========                 |                                                 |
| \\      /  F ield         | OpenFOAM: The Open Source CFD Toolbox           |
|  \\    /   O peration     | Version:  2112                                  |
|   \\  /    A nd           | Website:  www.openfoam.com                      |
|    \\/     M anipulation  |                                                 |
\*---------------------------------------------------------------------------*/
FoamFile
{
    version     2.0;
    format      ascii;
    arch        "LSB;label=32;scalar=64";
    class       volScalarField;
    location    "0.001";
    object      k_LES;
}
// * * * * * * * * * * * * * * * * * * * * * * * * * * * * * * * * * * * * * // 
 
dimensions      [0 2 -2 0 0 0 0];
 
internalField   nonuniform List<scalar> 
13597
(
0.2479217505822618
0.2523484869463007
0.2577954239608749
0.262636286289894
0.2643382885274782
0.2633420157213925
0.2593635089751892
0.252253526938383
0.243582242950667
0.2334346337906311
0.2215758660780289
0.2095519122635641
0.1969644874966644
0.1840652777663843
0.1721730676456805
0.1612741740921087
0.1509041946402463
0.1413145053137029
0.1332257294972037
0.2717210367487253
0.2786572524456745
0.285448439026602
0.2914329113108917
0.2906867591639924
0.2851803641680714
0.276169150874781
0.2641756567701273
0.2502874941143597
0.2350596312790651
0.2181452106426356
0.2004530936932337
0.1837821768317453
0.1689528954043702
0.1568236587852705
0.1473454454897398
0.1398757789255953
0.1339667557426157
0.1299908893058368
0.2869383397400799
0.2928219202977414
0.2960261500712111
0.2949467229994482
0.2864793377749249
0.2735956998552776
0.2567310643205457
0.2382279879404487
0.2191718824100957
0.199489888516965
0.1808171342006901
0.1646155751624619
0.1517376432231438
0.1424025324957215
0.1364093625072452
0.1329231182019101
0.1308012779353507
0.1293307625892077
0.1286806623296104
0.2915015342399952
0.2930115498696525
0.2885444591516504
0.2767668432635988
0.2591141552790517
0.2390703577186756
0.2164838147084655
0.1950143655944436
0.1760074262843432
0.1591233708942006
0.1447856957006415
0.1347942696212756
0.1280779819695155
0.1240892640456236
0.1223105086769518
0.1213777659935071
0.1206424341669932
0.1199868500186644
0.1196462286355368
0.2865087642555967
0.2805308965348206
0.2668858580743383
0.2462758130036041
0.2227208438298655
0.1999796281105153
0.1774133579315145
0.158219408111062
0.1436702864001027
0.1326143369593186
0.1247467285250688
0.1201283264082687
0.1176825779029395
0.1168688419857278
0.1167958280988408
0.1169697431753162
0.1168617159664029
0.1168111037440121
0.1168086333680178
0.2728286192892061
0.2587595972308841
0.2365142817343668
0.2116899125568786
0.1876400217424801
0.1666368724890857
0.1491723627929897
0.1359919654185649
0.1267458610919514
0.1211414139602963
0.1189805362310696
0.1183119397712057
0.1187247343539237
0.1197250015662643
0.1207236178378534
0.1215434040874521
0.122155105545899
0.1224998990749006
0.1223532338698467
0.2517958125177661
0.2321463869413677
0.2060129990003635
0.180868918707025
0.1602820181070113
0.1437971376219355
0.1320439512261638
0.1253028252813341
0.1221155556869378
0.1216685440423557
0.1228429474373879
0.1246245188838603
0.1268248370266353
0.1287781952742785
0.1301951429888379
0.131192676716372
0.1315394755348787
0.1311723488279404
0.1299182808512337
0.2289809232495757
0.2058388881986269
0.1798633874492746
0.1578054303468696
0.1416532125324172
0.1315763329014059
0.1261416174950271
0.1248690142088475
0.1265335692521419
0.129008040679883
0.1319594885334945
0.1353308082817579
0.1378758230540067
0.1396239655337698
0.1403444866183925
0.1407052272002595
0.1400705057425091
0.1383898856755373
0.1357783912541967
0.2062914987595078
0.1816759738445316
0.1583902966670936
0.1419600797801358
0.1318559947795051
0.1278932029483492
0.1279948037150567
0.1309545218957546
0.1353968517034686
0.1399360454817455
0.1437187014342044
0.1468896887532536
0.1486279176496456
0.1492235492284424
0.1488115879872754
0.1479671599304633
0.1460160989008408
0.1430457050236924
0.1390614943075696
0.1860104636632751
0.162215971105786
0.1432670181612827
0.1334646157574896
0.1295596633688142
0.1302308305622612
0.1345051797361051
0.1406825297044397
0.1465443119221538
0.1516538601256845
0.1548123302962452
0.1563410162976733
0.1568738756779706
0.1562066483276085
0.1547573780434692
0.1526968049650528
0.1496093608753456
0.1455568736065515
0.1406764302030744
0.1698237444828873
0.1492024092235456
0.1354577715458663
0.1309314797700528
0.1314264700754948
0.1363846618810806
0.1439820148880928
0.1517079228767026
0.1576222097885859
0.1620320060498902
0.1638416213288549
0.1638410538364984
0.1629944142154071
0.1609129620499365
0.1583290885152183
0.1553160177864017
0.1516143323434913
0.1470025686262833
0.1415941984878811
0.1569748323383861
0.1404427164311101
0.1322545830133276
0.1323465719119948
0.1368071078565295
0.1448730230960009
0.1537667940424729
0.1615047330850923
0.1667123587006941
0.1698543158540192
0.1704349456841019
0.1695176481482267
0.1673070259817111
0.163909105187938
0.1604198566167893
0.1568549074365507
0.1527872325599671
0.1477739043809322
0.1420397499647133
0.1481031920430525
0.135257614961248
0.1320574720185926
0.1360404337138182
0.1439005480500796
0.1538777538981923
0.1631023803243116
0.170439583243806
0.1750044407012246
0.1763800431025023
0.1753866815440199
0.1732780845029598
0.169985519508227
0.1659241209917689
0.1621754065039616
0.1581275819073287
0.1536265738262132
0.1484436106319326
0.1423587157871682
0.14305436175154
0.1332295796049765
0.134205798443445
0.1411179861042746
0.1514682616661799
0.1622033708686401
0.1713059190651352
0.177924302219007
0.1815281618217626
0.18174986841197
0.179297218003296
0.1762288926642355
0.1719927683135794
0.1676382910525052
0.1636918816905131
0.1592377287826003
0.154341801754723
0.1491971193581467
0.142921173411923
0.1406647191250934
0.1337965412664765
0.1383453888208125
0.1476922499337386
0.1595468626438053
0.1701278273709728
0.1785184542689859
0.1842616302339226
0.1866964549126416
0.1861010551438607
0.1827241506982042
0.1785592959688967
0.1737090515252027
0.1692361629574866
0.1651605288817454
0.1605453888847105
0.1555073191405383
0.1500907535601168
0.1443875959585689
0.1396293040846444
0.1353516008592018
0.1427352903825128
0.1540627668896404
0.1667126713351469
0.1772663737075274
0.1852784970660993
0.1900288620028937
0.1909199440107989
0.1892312101022155
0.1854952799837486
0.1805195356774957
0.1755480333036555
0.170941774429336
0.1665127374623506
0.161854204625793
0.1568914332891753
0.1517534877315861
0.1481986693021262
0.1395883255928126
0.1373365108189085
0.1472841518173793
0.15987379821143
0.1725519550221
0.1830159001290938
0.1908474862065209
0.1947870874987834
0.1942097870533697
0.1917718807409149
0.1876812583440214
0.1821556803189461
0.1770086735537471
0.1722739079844938
0.1677861765386935
0.1632696107982068
0.158661628391369
0.1553361058308423
0.1544326774138913
0.1404059700753574
0.1401505003752296
0.1521718745708459
0.1655569978862023
0.1779428458788375
0.1879405493397115
0.1952847730788872
0.198136771163028
0.197279462406269
0.194393581323149
0.1895164216242577
0.1836429634070345
0.1783731749061433
0.173572765096011
0.1694509048611502
0.1653653686855351
0.1619721378530898
0.1611334891582363
0.1599001070234686
0.141305186545816
0.1427158493608185
0.1568016749536782
0.1707312958267336
0.1829893875421826
0.192654155478838
0.1986502264497247
0.2006641364691621
0.1999936467166218
0.1966186455371606
0.1911112046506755
0.1852344592042264
0.1799765080414097
0.1753579986851748
0.1715501943966247
0.1682240917243219
0.1669744026459321
0.1683768934965783
0.1630509611636733
0.142184383519319
0.1451898054541287
0.1610717057733298
0.175242373639755
0.1872945751541103
0.1965894881889668
0.2021155733811122
0.2036412447884307
0.202469308707938
0.1987022694502282
0.1924057088780106
0.1865469572512474
0.1817146869081435
0.1774450775198475
0.1739879813618321
0.1720952659240569
0.1734114250139116
0.1748002871668798
0.1627570541964981
0.1433354497971268
0.1477183553266016
0.1646095955046414
0.1790375316376061
0.1908573403716956
0.199373441191185
0.2052229804052955
0.2067346635601596
0.20452031117577
0.2003152487336822
0.19400806794186
0.1880997745942699
0.1833465523366329
0.1792606402180415
0.1768009748959229
0.1773563033410803
0.1809097909999003
0.1800764599123779
0.1557753645283186
0.1442933237241198
0.1499901694354203
0.1680779120562638
0.1823911609088486
0.1941807418737522
0.202748616263479
0.2082093739220748
0.2089979998209755
0.2059012515343925
0.2013547406057314
0.1955522527109597
0.1894360180928234
0.1845491768963619
0.1813207492679845
0.1804124131766729
0.1835791672515709
0.1883130895753367
0.1842425746300121
0.1405890753912564
0.144755795177635
0.1519422046431732
0.1712040238613117
0.1852643975677129
0.1971575998805544
0.206139199814313
0.2114277627649908
0.2110962435065263
0.2074614569711405
0.2025583395616462
0.1965771558705758
0.1909587084672862
0.1865846304256722
0.1842552883370743
0.1854333480587736
0.1906438272265231
0.1952618590150391
0.1816253983786957
0.1253405946621812
0.1454112281290538
0.1537964733492383
0.1744604822519131
0.1888051527301806
0.2001816858056189
0.2084066342167966
0.2131395067042967
0.2129710227427917
0.2093426860668127
0.204188965240717
0.1979061832388301
0.1927010064266577
0.1891197525540199
0.1878668837662687
0.1912396138668724
0.1979969846345986
0.2013323453441743
0.1742773507640159
0.1121714458034855
0.1461981013621868
0.1555959055803004
0.1773745163455118
0.1923708274729431
0.2031619336386592
0.2107142537152929
0.2149119722118395
0.2144765978224552
0.2107582019256478
0.2055921865278741
0.1993378973042995
0.1943146501935211
0.1913283837645976
0.191595784159104
0.1967500406268587
0.2046638129577013
0.2046193818837434
0.1668361249779923
0.0989605219429121
0.1471374687643102
0.1575446040104705
0.179959509304874
0.1948892186832466
0.2059332496541782
0.2138712110438883
0.2171988957048584
0.2156386079481803
0.2118692254667825
0.2067181419183097
0.2005426727981842
0.1958393485627939
0.1936144542709933
0.1954722974499757
0.2021559681084007
0.2106785154297784
0.2026372644748695
0.1565932384943878
0.0896314849493298
0.1482134778376063
0.1594923159871304
0.1824435420774937
0.197409513460046
0.2086382296857113
0.2167209558427941
0.2188222243138751
0.216744346482864
0.2131655395304018
0.2077292858315317
0.2016643170352795
0.1971725320288961
0.1956924015801412
0.1992083329239797
0.2080312655285572
0.2161616548440133
0.2001779326417744
0.1464147520369756
0.0821905582644616
0.1492989961524219
0.1613691082064978
0.1845953835719282
0.2004026797802409
0.2114764336006132
0.2187308179595913
0.2205375606595926
0.2184274653257674
0.2144617727238975
0.2085166411220127
0.2027863231052454
0.1986797073805584
0.1977136254745643
0.2028191302996259
0.2142326769208903
0.2215568784934976
0.2008190895089678
0.1399300534947937
0.0763459150774004
0.1507553075236957
0.1635033776326544
0.1868982287538956
0.2033196365210101
0.2140217528126026
0.2203026439277687
0.2220450932126014
0.2197636026620852
0.2153689709350462
0.2093259166955579
0.2041825473141742
0.2005598190802014
0.2007906649936866
0.2070837629912592
0.2193616363112931
0.2251423357481597
0.199950419902275
0.1350495302687491
0.0731547488304218
0.152311789517491
0.1653386168495146
0.1891325922547594
0.2059346789478709
0.2162594964529331
0.2217058938116414
0.2233409282507451
0.2206713266670468
0.2158414299699434
0.2098173363647189
0.2052265229313395
0.2022349973679486
0.2036024437495056
0.2113779215874486
0.22381074959178
0.2224352547662089
0.1925793394077943
0.1303536227576526
0.0713879652204955
0.1537588576786057
0.1670626960781852
0.1913374549544496
0.2080500443359899
0.2181321300732575
0.2230263110123478
0.2244192402304532
0.2215712127449957
0.2166047857776593
0.2104956300229531
0.2061190227978961
0.2040898727252995
0.2060129261547249
0.2152863944510163
0.2281039532317369
0.2197424001999931
0.1848358947377281
0.125758577111328
0.0702130452067862
0.1552089585780698
0.169067800524012
0.1941871748491541
0.2101874288974885
0.2197594592925276
0.2244292214988465
0.2254899494203664
0.2224019518881589
0.217276069030608
0.2111564129036518
0.2070120134508105
0.206145677745473
0.2089570315368637
0.2192836317312058
0.2318513659499096
0.2211246439531232
0.1824068053179853
0.1216995090882945
0.0684038345195371
0.1566019488985369
0.170938042582154
0.196765650733433
0.2123062368349571
0.2212103404431874
0.2257676992588496
0.2266794490176234
0.223317207831865
0.2178468908958873
0.2117517039570652
0.207873725774217
0.2075427227484426
0.2112820815205637
0.2224666326212528
0.2359002077295148
0.2237634412567324
0.1817226841781569
0.1190215555751619
0.0664593104194441
0.1584337392398836
0.1731183802718932
0.1988762589594708
0.2140744150140255
0.2227589373567397
0.2270882594992924
0.2276229118206519
0.2242143542989937
0.2189322157108033
0.2129907430016131
0.2091186196852613
0.2087244540969886
0.2131382020796091
0.2247076464977353
0.2393450926110856
0.226774075919366
0.1819415546107815
0.1173977678572853
0.0654671231159392
0.1606581219689798
0.175664325917372
0.2010980497384712
0.2157463328514797
0.2247713812699028
0.2284924476921912
0.2283887839209529
0.2251024753454481
0.2199394061213928
0.2142658311117068
0.2102189486021766
0.2098020115228564
0.2149913247559003
0.2272857131391753
0.2418053629198231
0.2279396451925554
0.18154078081422
0.116057242863494
0.0648811164280936
0.1624965756464483
0.1777659095466538
0.2032693962068389
0.2178367707909602
0.2271154331442873
0.2302556062444496
0.229404012528705
0.225822082361294
0.2204300665835606
0.2151744243978735
0.2112760254181475
0.2108667299185662
0.2165861474348646
0.2300421116279912
0.244584545174861
0.2290252117442241
0.180574053696703
0.1144987178910964
0.0641062289363248
0.1642596646108691
0.1797148046439231
0.2052330059881513
0.2200637364707283
0.2292320573186871
0.2318804176546082
0.2305985023758693
0.2263728733797392
0.2208437984354779
0.2160184778208022
0.2123685593833447
0.2122294876301612
0.2182068555124094
0.2323557438440318
0.246698772645651
0.2297361131730161
0.1809095495118303
0.1145085241233747
0.0635346282107453
0.1660469099626987
0.1817274187793991
0.2069386824223998
0.2218867498933154
0.2309671477940399
0.2329081175605787
0.2313557494549061
0.2270048773951807
0.2216554674823668
0.2166830316151705
0.2129975152676777
0.2133947943284314
0.2201796327252925
0.2346179905779455
0.2472996197491453
0.2295598505086156
0.1807445431937231
0.1147316841383926
0.0634323820892055
0.1674328874263423
0.1833633194467984
0.2084237276373109
0.2231186854320149
0.2323699698897178
0.2338052640780542
0.2318825923331267
0.2274238517157314
0.2220226359569158
0.2169100110971736
0.2131519129160842
0.2139232673310563
0.2216223446094909
0.2368195053095207
0.2472792098869653
0.2285931648767034
0.1793820128668897
0.1137700871007272
0.0635476047971605
0.1690615713661841
0.1850761427863413
0.2098006601395067
0.2242004386563796
0.2336601553258653
0.2345798602554278
0.2324576027804131
0.2278167008312102
0.2220662434975905
0.2173035903957295
0.2135838703852642
0.2145286389433036
0.2225430087739882
0.2382416414384439
0.2474576295920302
0.2270003337153937
0.1782782827302674
0.1131879603816607
0.0635913636379515
0.1706530427742414
0.1867542053181615
0.2115838047338811
0.2256128308948229
0.2348218525000198
0.2355395769997136
0.2331100619421871
0.2283780672896926
0.2225823341925496
0.2180024052951878
0.2144536873578008
0.2153997191875986
0.2235770843897484
0.2394638876991343
0.247116940738473
0.2250153093144762
0.1767257238347778
0.1124170794065241
0.063632923032247
0.1717824389371206
0.1879391514945967
0.2129214185544268
0.2270368375623206
0.2357770987399015
0.2366028608637286
0.2338343999544237
0.2286383749217015
0.2229519262236531
0.2184133216142413
0.2151180993439031
0.2162179936074181
0.2244400294371601
0.2403497666830718
0.2471458919916879
0.224243145301095
0.1752508447170034
0.1114016744373415
0.0635610918982644
0.1731951228862823
0.1895885071144115
0.2140588690161098
0.2280509193137727
0.2363006515252598
0.2372219589593601
0.2344694476426927
0.2287931972167475
0.2228927492420334
0.2186943625726377
0.2155907021095549
0.2167702236002464
0.224929360001165
0.2410808589411845
0.2481568219346336
0.2242615673596875
0.1743026479690815
0.1106434873950852
0.0631143008066539
0.1748316078479292
0.1913629760553048
0.2154638988768898
0.2287717780942797
0.2364711934830397
0.2378829358473825
0.2353561421492743
0.22977489725813
0.223134467844409
0.2187594415851763
0.2161210585962841
0.2173851265234171
0.225580810955492
0.2419266859092726
0.2476100425652255
0.2227595446190568
0.1736314800866797
0.1104391730230883
0.0630410793655376
0.1263022281946401
0.1269358401431335
0.1283578974365676
0.1317566263827714
0.1350760639467276
0.1368258256056031
0.1382046289760082
0.1387184852380409
0.1383806757023511
0.137876575049448
0.1370521473419297
0.1365158825958263
0.1361988618422792
0.1356498766118365
0.1350533624217973
0.1349196342984369
0.1358010190696266
0.1369047306879475
0.1383556054539245
0.1308994808703283
0.1321626884004425
0.1331864129146838
0.1360840662733162
0.1384076587127075
0.1395000058890398
0.1407090512520915
0.1413074839567234
0.14091114088724
0.1406292377889058
0.1406089308552846
0.1413212333653222
0.142540589419322
0.1434562208950063
0.1445024350073636
0.1460602695934611
0.147977836664503
0.1497355856478235
0.1512299996437085
0.1381293839221897
0.1405366462639287
0.1426291016069412
0.1467157756896964
0.149663960918877
0.1518415478151103
0.1539099913626515
0.155535104841064
0.1565935661410686
0.1580138592766728
0.1595437261472592
0.1610914414333917
0.1630299066455483
0.1655468783225948
0.1681104632821951
0.1706739175226237
0.1726578686146626
0.173706885832646
0.1744150445739093
0.1479833140143321
0.1514386033586711
0.1548273682007707
0.1597566885650527
0.1627760292568083
0.1655658225637295
0.1676291869234563
0.1693092522450187
0.1703583548777481
0.1711274023422941
0.1724430566768581
0.1739498912153861
0.1761184660789588
0.1784869466469611
0.1801978139604143
0.1817586475602906
0.1830733756456877
0.1841378476617459
0.1853468870057136
0.1577859952740446
0.1616052457345016
0.1648268138282372
0.1693853583356624
0.1719341591232495
0.1736742028023402
0.1745789116626112
0.1751926101973798
0.1759869458504198
0.1767993947951622
0.1781506449210089
0.1801144109937278
0.1827587112578024
0.1853749265363951
0.1874646075684017
0.1894479950223023
0.1915295302053024
0.1933137023282779
0.1948534155474971
0.1656785591480217
0.1687035732943907
0.1706584501120081
0.1737084836295197
0.1754438237687253
0.1759108431192972
0.176040992635197
0.1772412233299691
0.1790230011632627
0.1810970340494428
0.1837606463702435
0.1869015294141104
0.1906588461660537
0.1938986204758463
0.1963775472102096
0.1984983632587991
0.1996591456353939
0.2001928537524244
0.2005031363067543
0.1716052994727771
0.1721857078568352
0.1722717546123771
0.1743578157316361
0.175478975318999
0.1756885518295203
0.1773930106342851
0.1805860293664237
0.1842596747920533
0.1880978757899353
0.1921915924062572
0.1964525908184781
0.2001394988480967
0.2029153284988462
0.2043021324052793
0.2047930191872312
0.2042847907588219
0.2031553025699899
0.20160833366826
0.1736940955415832
0.1716509910003741
0.1710407845053646
0.1730818972443129
0.1748087194897445
0.177045464360412
0.1816923001896451
0.1867993843485996
0.1922655502794958
0.1979288319681242
0.2028314768907777
0.2067874110674404
0.2084818413275569
0.2092615801902077
0.2089317555908165
0.2076813881121205
0.2059235799106264
0.2034806711321335
0.2004241032456471
0.1734554109458482
0.1699575813310425
0.169522106201606
0.1727250216354947
0.1762123107436602
0.181531553108437
0.1891139004242607
0.1967952576878124
0.2034380967691596
0.208865370204472
0.2125859331567584
0.21455084497519
0.2144554987465505
0.2132326471836235
0.2110923802942584
0.2082469401999965
0.2054279120306024
0.2021961574180355
0.1984237990140559
0.171507247216327
0.1675981087062525
0.1691890480247826
0.1745990619629061
0.1805791336175731
0.1890930961917376
0.1986135698533599
0.2076584854042962
0.2142876185141956
0.218482038866227
0.220452579435055
0.2193196353223995
0.2171490263718215
0.214842428676308
0.2115842284563545
0.2078227684699541
0.204177071488648
0.2003465758875327
0.1961616727494999
0.1680380833352326
0.1652861797499555
0.1699607049676403
0.178507496112381
0.1879858580954123
0.1989008669477449
0.2089836805776466
0.2174927625451972
0.2228814340650934
0.2252807280885946
0.2251275571420122
0.222392441878233
0.218540207715984
0.2146565026773624
0.2107602908397284
0.2069688621240932
0.2028274718606464
0.1985492268822363
0.1941726966195742
0.1659924717668247
0.1649260657382781
0.1723758967695967
0.1840488920963557
0.1962330632176594
0.208561867067468
0.2190345052238906
0.2265879797543134
0.2302775950357319
0.2303818490712996
0.2277181072867865
0.2236575791884897
0.218956988601383
0.2141324519969628
0.2096739028812976
0.2059031008058399
0.2014449796797422
0.1967815076760329
0.1924852629724712
0.1652544569127489
0.166212189133084
0.1773336050954616
0.1915112208142262
0.2051000499081006
0.2179822305527409
0.2277884985381703
0.233745788972776
0.2360617907666774
0.2342280745428668
0.229299199936641
0.2238253761173254
0.2184273793648201
0.2137055648740844
0.2090256384495566
0.2044425687471437
0.2000984442930175
0.1955626983819525
0.1910739459520345
0.165139452815941
0.1691434419531759
0.1837408600440056
0.1994258321920851
0.214060759372651
0.2261902576429048
0.2349030871709639
0.2396719680564237
0.2401347658033057
0.2361540331247962
0.22986209760437
0.2235104708368422
0.2174646623870839
0.2126849873381723
0.2080071255375312
0.2030917518575
0.1988230036852586
0.1945831990364599
0.1901615909266623
0.1670470200427355
0.1730972407525589
0.1897852881136779
0.2068824761041615
0.2222994096280604
0.2335849291917484
0.240980240570419
0.244023558140508
0.2420670802881546
0.2364451303271788
0.2299320929829338
0.2230165703512319
0.2166261647113967
0.2114053167786575
0.2066641641787278
0.202011841717511
0.1980072622120011
0.1941103304892423
0.1907637208204498
0.1703266333512539
0.1780170153122002
0.1969017391789215
0.2146530574272551
0.2296556577899079
0.2404781686943469
0.2459904841799425
0.2471576683057106
0.2435318760394038
0.2366937047219871
0.2294159071350088
0.2220242521938787
0.2158987162719849
0.2103575436831345
0.2058419865700148
0.201742024744363
0.1978336414653294
0.1948635759764064
0.1946037976303101
0.1727425241544871
0.1826070522676816
0.2043827949914017
0.2215432234848575
0.2358443884853504
0.2452827947878662
0.2493749607435298
0.2493150405671917
0.2442973348281207
0.2367333632198505
0.2285263174989995
0.2212105783168539
0.2152688355181477
0.2096937848276753
0.2052811519159265
0.2017523600565983
0.1985459984535421
0.1980349947348894
0.201158896036997
0.1749108215793388
0.1868543634472186
0.2110123376925922
0.2275121594945124
0.2404383578209319
0.2487214339127525
0.2520166420212807
0.2500611565646446
0.2433365870157965
0.2356551794707057
0.2274429919996639
0.2201738421942027
0.2141571704445187
0.2091812950426258
0.2050272764048882
0.2021926320651025
0.2010296859169983
0.2043487213731177
0.2075844069851472
0.1779332587169332
0.1919295955910052
0.2158526888417527
0.2321060458854088
0.2439909179567464
0.2510850734567688
0.2535409989785974
0.2500874563815383
0.2422870924586321
0.2342238037910736
0.2263108179688522
0.2190752631050921
0.2132309579746882
0.2090669940601433
0.2055138989761897
0.2038853652491183
0.2056916284772799
0.211910994629263
0.2096532523792942
0.1815052762689833
0.1967735725268193
0.2196924498965385
0.2360113096317056
0.2475768775634173
0.2531563627368551
0.2541123457476216
0.2494536540344975
0.2415136039718562
0.2333283267503109
0.2251963339696038
0.2184295996331871
0.213150250695841
0.209141488103712
0.2064751243319039
0.2067294682477483
0.2121492230922668
0.2176887240056774
0.2066299587775157
0.1850485499305772
0.2000905224971309
0.2233747705044689
0.2394728511006542
0.2503748928813222
0.2548057501639546
0.2541317530821367
0.248979031129689
0.2410682798124916
0.232605706436196
0.2241026450004114
0.2175143371769659
0.2131449888487021
0.2097543119779457
0.2085326683163401
0.211241902239701
0.2194987360833496
0.2223870130659092
0.1970547389024205
0.1879064682522568
0.2026533486046097
0.2274362080987192
0.2424446325852088
0.251683346439279
0.2555435150980144
0.2538438455072072
0.2483755983052922
0.2400818433398883
0.2314994013678309
0.2231875347376379
0.2168741925774874
0.2132240584921821
0.2109998972453272
0.2113161507474134
0.217151574609626
0.2269977013858542
0.2268707002031153
0.1771382936720547
0.1905880123487983
0.2052954626286216
0.2305542146071321
0.2446952477175663
0.2523884410213475
0.2556870793481002
0.2533893771099464
0.2469559731526057
0.2386236844742714
0.2301473666335546
0.2224636508893839
0.2168995384749343
0.2135129989895131
0.2123305656738797
0.2151592375724508
0.2245330377136433
0.2334850885745518
0.21978651377151
0.1555447160683369
0.1922685102074877
0.2073228436717221
0.2318031649013673
0.2454691498171444
0.2528448881027734
0.2551234159739
0.2522807021618536
0.2455760473717091
0.237594307145176
0.2292367080597467
0.2221348202724057
0.2171207006511414
0.2141342860147347
0.2142644808986021
0.2199891941253734
0.2315444452093911
0.2377312708587228
0.2067964295797682
0.1381906155279432
0.1931345567974455
0.2085048521407526
0.2330745031151233
0.246044558547063
0.2531919348135323
0.254875514270988
0.2513692164576312
0.2440845899377356
0.2364660729731666
0.2289921143595551
0.2224074513041344
0.2173915110188106
0.2151537327601781
0.2170586003275975
0.2249412382888134
0.2366191917991436
0.2381517195915867
0.1971411328582114
0.1219433207233985
0.1937246742424323
0.2089116265174424
0.2338766829772628
0.2465739707521396
0.2533695939369695
0.2541937182676868
0.2503613549728266
0.2431498233405118
0.2353492737102549
0.2284883209100947
0.2228162697777219
0.2179482957858092
0.216330020243217
0.220023136800906
0.2297946734721153
0.2410475372820721
0.2318387659430683
0.1819363432294425
0.1077505514462378
0.1938423119236756
0.2088759941960446
0.2337732387780141
0.2461329677928557
0.252806469919013
0.2529358114594925
0.2489268437765496
0.2426926532244294
0.2350202239645744
0.2280253335736627
0.2226798015287355
0.2184611060067051
0.2178296761794221
0.2227774185658386
0.2336939458868458
0.2448621244815694
0.2274614973181209
0.1680764478691052
0.0962889538317887
0.193915646165516
0.2087192549413405
0.2334196469900911
0.2455242603856263
0.2517825990558135
0.2522490762587266
0.2482684870572764
0.2423342179937364
0.2345893259490964
0.2272969031046942
0.2221278093185628
0.2184225067317272
0.2192671786088519
0.2257062025137642
0.2376362822230602
0.2486594149331539
0.2277515241424342
0.1609482482183446
0.0891826840871604
0.1942114818225178
0.2093329782462469
0.2336572098749422
0.2451974184010129
0.2507641991003398
0.25184551656551
0.2481833293176918
0.2418682076704373
0.2334849938839503
0.2259704553740874
0.2213215275385137
0.2183382940997803
0.2204302389913031
0.2284671147885407
0.2413097506384572
0.2482490282895637
0.2222651778118666
0.1539770685153285
0.0848263037156844
0.19384916895464
0.2094703971694519
0.233339978355771
0.2446537417353063
0.2499480783368636
0.2509780648427527
0.2473296966298259
0.2406579366318166
0.2324832218473161
0.2251085996211413
0.2207823054617183
0.2188710768627415
0.2216826591911972
0.2306493916800733
0.244036896141873
0.2432442706951208
0.2094913600255473
0.1437745792205751
0.0804543580190966
0.1929978887191772
0.2086863929968296
0.2321845686963989
0.2436853517086696
0.2490373582831345
0.2495741870801177
0.2460564809748443
0.2394633748886019
0.231802720195623
0.2248648394250464
0.2207331413387259
0.2193506640333547
0.2223691416685311
0.232272747684425
0.2468151020488653
0.2398434182822587
0.1992114694511259
0.1351013218594007
0.0766313396141383
0.1919682295183966
0.2076986092408025
0.2314819406083474
0.2425073217575654
0.2479845211465527
0.2483513429230001
0.2448959745838353
0.2383728428074535
0.2311015020766663
0.224750221780331
0.2207449665193838
0.2196137443588182
0.2229961596149584
0.2337143954761495
0.2489513458298066
0.2391625107036694
0.195174856352925
0.1294774384038104
0.0732683712813148
0.1911130326913765
0.2065895771896256
0.2309342618996384
0.2415947396734759
0.2469666612805125
0.2474932443371199
0.2437133992908308
0.2374727141448314
0.230776131825781
0.2245206323934563
0.2203759577782993
0.2197107846160048
0.2237430447629111
0.2354874940430687
0.2506633217722695
0.2395871970675667
0.1930935725189491
0.125440664217391
0.0715182624913571
0.1901178308822587
0.2053820616206111
0.2298744163508136
0.2409181441653554
0.2462240706017654
0.2470120743525626
0.2429321998469376
0.2366725355104935
0.2301104526728035
0.2241620778909835
0.2198373295138365
0.2195628725071378
0.2243985385105295
0.2371742643687044
0.2519319763146546
0.2392499570986509
0.19144153366572
0.1225769579321629
0.0697600766295716
0.1888417341037107
0.2042178987233961
0.2287378132051398
0.2401628185540934
0.2454466582204142
0.2461387363025932
0.2424463268410458
0.2361867618255594
0.2291180592023345
0.2237341617373707
0.2196540513184493
0.2194209902941691
0.2246664182917885
0.2382485025456488
0.2528338803751863
0.2389742289721713
0.1896859491326018
0.1197495917972059
0.0676067389472636
0.1877659096739954
0.2029145730277675
0.2272951507906035
0.2393148669366475
0.244501502388006
0.2450361736500278
0.2419046932927049
0.2354069721444221
0.2285035022443427
0.2234551805916252
0.2195633965684843
0.2193064841791236
0.2245201675456121
0.2392698983064596
0.2544675912074497
0.2392886149193583
0.1875904047994002
0.1176096982841291
0.0666134635720755
0.1865982977234043
0.2014053746505256
0.2256653911882533
0.2384163963607921
0.243464843298673
0.2442202338593913
0.2412160867727082
0.2342736189177368
0.2277789280389546
0.2232622575737772
0.2196424518465159
0.2196418718517079
0.2250813791006839
0.2401987501385167
0.255157943361155
0.2389352680020654
0.1861567132206315
0.116549297688814
0.0662148441329563