/*--------------------------------*- C++ -*----------------------------------*\
| =========                 |                                                 |
| \\      /  F ield         | OpenFOAM: The Open Source CFD Toolbox           |
|  \\    /   O peration     | Version:  2112                                  |
|   \\  /    A nd           | Website:  www.openfoam.com                      |
|    \\/     M anipulation  |                                                 |
\*---------------------------------------------------------------------------*/
FoamFile
{
    version     2.0;
    format      ascii;
    arch        "LSB;label=32;scalar=64";
    class       volSymmTensorField;
    location    "0.001";
    object      tauij_LES;
}
// * * * * * * * * * * * * * * * * * * * * * * * * * * * * * * * * * * * * * // 
 
dimensions      [0 2 -2 0 0 0 0];
 
internalField   nonuniform List<symmTensor> 
13597
(
( 0.1650864211887162 -0.0758211919753592 -0.0351647863801794 0.1254670329470434 0.0239589851753246 0.2052900470287638 )
( 0.1657251977289719 -0.0728146403015751 -0.0317847212947046 0.1275674930128988 0.0249438713714937 0.2114042831507306 )
( 0.1649533064968154 -0.0655374882488344 -0.0250882127471964 0.1304279125896912 0.0260570343783445 0.2202096288352431 )
( 0.1623614453848318 -0.0541489896288781 -0.016988586094343 0.1333143522657054 0.027624556536283 0.2295967749292508 )
( 0.1600629441144006 -0.0443983275562546 -0.0109533331093919 0.1345641160420657 0.0296793232188041 0.2340495168984898 )
( 0.1590528573059239 -0.0372859779377885 -0.0061985927059117 0.1340634562462157 0.0321684956038059 0.2335677178906453 )
( 0.1570820579273248 -0.0304304726728469 -0.002064627769353 0.1319472651305016 0.0349026782179576 0.229697694892552 )
( 0.1542494590765879 -0.0239913396548494 0.0019938576751332 0.1281088770402988 0.0375539235721594 0.2221487177598792 )
( 0.1509829930714069 -0.0180346477781904 0.0058723737780838 0.1232068754571431 0.0401239247957461 0.2129746173727839 )
( 0.1477445632451725 -0.0126633911966646 0.0092924387133989 0.1172193855911504 0.0422006356290225 0.2019053187449393 )
( 0.1442215075647897 -0.0075343033209443 0.0131351717291417 0.1104227543270963 0.0441927464646673 0.1885074702641719 )
( 0.1403504255617778 -0.003028605755968 0.0163356204087888 0.103379078109684 0.0457196840392144 0.1753743208556663 )
( 0.1361940123398272 0.0006637996976129 0.0189599010023601 0.0955201246560539 0.045629621521716 0.1622148379974476 )
( 0.1315876857969063 0.0039136809408264 0.0217954176693577 0.087992771365026 0.0446532201538898 0.1485500983708362 )
( 0.1275441224686727 0.006312242586167 0.0246720459062473 0.0814999334814343 0.0430731787686383 0.1353020793412541 )
( 0.1238169001101088 0.0081332051242136 0.0273581611545444 0.0754158673768494 0.0405578502164081 0.1233155806972592 )
( 0.1196447220055079 0.0097318304133683 0.0293349355841944 0.0693120398415989 0.0373562055282936 0.1128516274333856 )
( 0.1154634292937517 0.0109253639705539 0.0308677454396282 0.0632556778039516 0.0332688425773569 0.1039099035297025 )
( 0.111169519479428 0.0116660862812217 0.0324389749254459 0.0582819677398345 0.0288656987700639 0.096999971775145 )
( 0.1787044354843774 -0.0722037075217732 -0.023149286240797 0.1364970752407919 0.0313196854929651 0.2282405627722811 )
( 0.1808790032132725 -0.0677842728846715 -0.0169176309973155 0.1404117595199672 0.0333397541891562 0.236023742158109 )
( 0.1809756042652587 -0.0591155880590295 -0.0066211817597491 0.1458072570808853 0.0361775783707796 0.2441140167070601 )
( 0.180702999633002 -0.0491577209285942 0.0036758474508193 0.151893468918165 0.0406495542570045 0.2502693540706164 )
( 0.180313461900473 -0.0420051414766228 0.010450186327335 0.1535997273711506 0.0450858075255355 0.247460329056361 )
( 0.1791052672431203 -0.0358261385688112 0.0160073413340319 0.152162853239339 0.0487679947129601 0.2390926078536835 )
( 0.177049487472696 -0.0305355622060559 0.0203687697100629 0.1487020735137933 0.0521763326143931 0.2265867407630728 )
( 0.1744255225016102 -0.0261184674466394 0.024041729229066 0.1438101650650875 0.0552163684981726 0.2101156259735567 )
( 0.1711440381808968 -0.0214336379792191 0.0272156744342808 0.1374096826019589 0.0574468276063631 0.1920212674458637 )
( 0.1677294593498187 -0.0176428812777283 0.0294041952290744 0.1295766312361588 0.0579954099161968 0.1728131719721526 )
( 0.163502149534476 -0.0143671392041988 0.0308880139083508 0.1210516674391961 0.0572745874435133 0.1517366043115989 )
( 0.1576227774155425 -0.0112994409621117 0.0313624612395432 0.1123681009255532 0.0552160603997497 0.1309153090453716 )
( 0.1520894719966906 -0.0090334251403237 0.0308234952657259 0.1033019832533961 0.0513034257785522 0.1121728984134039 )
( 0.1467128757154248 -0.0069929870727263 0.0299276367604559 0.0946628787518771 0.0461178242168279 0.0965300363414383 )
( 0.1411754117885827 -0.0053161288227686 0.0287586140652883 0.0874643518281451 0.0402576746616092 0.0850075539538129 )
( 0.1363540828296016 -0.0041448267763223 0.0273284613350777 0.081371138902303 0.0340470749635813 0.0769656692475746 )
( 0.1318528059231034 -0.0032626852304799 0.0259365912703684 0.0759846399023317 0.027841727902726 0.0719141120257554 )
( 0.1275039989874607 -0.0026346100057823 0.024192235957994 0.0707873916299447 0.0213079274814672 0.0696421208678258 )
( 0.1236221425758922 -0.002167371220646 0.0225883491765609 0.0663287485956652 0.0150945424285105 0.0700308874401162 )
( 0.1834963808577279 -0.0619557158760965 -0.0072282534677461 0.1419360762151277 0.0368794281058259 0.2484442224073042 )
( 0.1838869411565678 -0.0558324908840733 0.0016625460972559 0.1461154781050183 0.0396809600495716 0.2556414213338968 )
( 0.1819206701245849 -0.0467797301821746 0.0131089552083111 0.1519158344842187 0.0439436089736789 0.2582157955336182 )
( 0.1794185846120755 -0.0384062430475714 0.0226537782379541 0.1565936825684978 0.0494062966427384 0.2538811788183226 )
( 0.176827073616082 -0.0329007906210435 0.0279706915318659 0.1553530489388569 0.0536199873959285 0.2407785529949109 )
( 0.173720519108825 -0.0279496903607024 0.0311938960078689 0.1509274525683218 0.0568218893392378 0.2225434280334082 )
( 0.1695066966088696 -0.0242951602840273 0.032515376955806 0.1442709767450352 0.0584322868827894 0.1996844552871867 )
( 0.1646003771518701 -0.0216348898276332 0.0326983543046535 0.1369388101007356 0.058605946871083 0.174916788628292 )
( 0.1594066141316501 -0.019063007796234 0.0313872706272512 0.128582486698106 0.0577959804804156 0.1503546639904353 )
( 0.1537428504519618 -0.0168521766123572 0.0289558843224418 0.119114916394746 0.054599575112021 0.1261220101872222 )
( 0.1477027215402239 -0.0149926791970973 0.0255582326202997 0.1097638273444626 0.049854177086806 0.1041677195166936 )
( 0.1417340981172421 -0.0132030362597447 0.0211480135260517 0.1008442364756642 0.0439040422646564 0.0866528157320173 )
( 0.1362546044249909 -0.0115823777550971 0.0162132463399967 0.0923282139087922 0.0366917171977066 0.0748924681125044 )
( 0.130870686665256 -0.0102759771770629 0.0117048848892352 0.0849707590825502 0.029287981152242 0.0689636192436365 )
( 0.1261782479213206 -0.0092434164437455 0.0080518709582241 0.0789071179991516 0.0224862895513406 0.0677333590940181 )
( 0.1222895138672639 -0.0084032706592488 0.0049998735839519 0.0740558960328715 0.0165394045946189 0.0695008265036846 )
( 0.1188155796603005 -0.007723902859757 0.0024843252120133 0.0699515852372184 0.0112950412338133 0.0728353909731824 )
( 0.1152054785891006 -0.0070800120449766 0.0002732401792352 0.0659067661621319 0.0062732625019762 0.0775492804271829 )
( 0.1119934899970341 -0.006523337362416 -0.0012388302382484 0.0621167553883717 0.0015178038458396 0.0832510792738149 )
( 0.1765541946062842 -0.0473005398178044 0.0109334539863752 0.1419891246991893 0.0406158020716989 0.2644597491745166 )
( 0.1728446710788786 -0.0398923674665086 0.0206745870599241 0.1451712486077448 0.0444880067158407 0.2680071800526816 )
( 0.1678822119602204 -0.0320751393046988 0.0290532144632014 0.1491056326844965 0.0493599830665446 0.2601010736585838 )
( 0.1622012301652946 -0.0254149148033804 0.0339699644877569 0.1495712025270512 0.0535411439517326 0.2417612538348517 )
( 0.1558697298319359 -0.0210242035620969 0.0351898031886337 0.1443663281291555 0.0554744734097688 0.2179922525970121 )
( 0.1497172435198731 -0.0178703250030867 0.033731948589543 0.1372544030884117 0.0560363862247093 0.1911690688290662 )
( 0.1431724761756383 -0.0159458280599979 0.0300301858539828 0.1283473981355858 0.054975461895992 0.1614477551057069 )
( 0.1369699128075323 -0.0146776166067458 0.0254461288126265 0.1195566676180548 0.0519296681076337 0.1335021507633 )
( 0.1312519678458168 -0.0135920550603723 0.0201618806017495 0.1109363671125057 0.0477358794939942 0.1098265176103639 )
( 0.1253210873965488 -0.0123736193505728 0.0143082397335562 0.102549228782285 0.0422847759211189 0.0903764256095674 )
( 0.1192249000297281 -0.0110133341158449 0.0082052776686298 0.0943446931458229 0.0354631007302477 0.0760017982257319 )
( 0.1140839623870716 -0.0099532255174111 0.0024540479076339 0.086921060553252 0.028241430472432 0.0685835163022275 )
( 0.1091578820209365 -0.0087581793074065 -0.0021413322205375 0.0800002553768045 0.020854131217106 0.06699782654129 )
( 0.1045211951733325 -0.0075592682115634 -0.0059398657311812 0.0739363169597389 0.0140625177162497 0.0697210159581757 )
( 0.1009547578170887 -0.0066183940439386 -0.0089439604120432 0.0691364646058852 0.0086574644831157 0.0745297949309294 )
( 0.097715411305378 -0.005540218605278 -0.0109260944413266 0.0652123880346766 0.00425924793767 0.0798277326469596 )
( 0.0946296567333064 -0.0045769429729787 -0.0125972980017768 0.0617577402817315 0.0005690323498315 0.0848974713189485 )
( 0.0916736735817572 -0.0036069906908269 -0.014071387971024 0.0584473400486873 -0.0028766112259897 0.0898526864068842 )
( 0.0890112139922399 -0.002525094842285 -0.015198832643388 0.0551757598115599 -0.006228592507238 0.0951054834672737 )
( 0.1604820199030346 -0.030986320425191 0.0279896281660385 0.1382785795242392 0.0439597807249453 0.2742569290839196 )
( 0.1524754558463451 -0.0229609675296606 0.0354003547175744 0.1388222670062271 0.0473350591210329 0.2697640702170688 )
( 0.1451942068369081 -0.0172330837508299 0.0379249910090355 0.1393863113205562 0.0510219863579131 0.2491911979912121 )
( 0.1373755073912521 -0.0128082895012453 0.0364124220003936 0.1359953470288846 0.0524906485768818 0.2191807715870715 )
( 0.1293243302719191 -0.00994678198462 0.032537107320823 0.1282420867932704 0.0520493930578703 0.1878752705945414 )
( 0.1225645170109399 -0.0087435305209454 0.0271813661644731 0.1200984268849885 0.0501166641922926 0.1572963123251021 )
( 0.1160142584199812 -0.0083285452097532 0.0202548053412851 0.111115196964947 0.0465860661326295 0.1276972604781006 )
( 0.1099551785080042 -0.0080109312031277 0.0134200929353663 0.1028706869227243 0.0415178447597346 0.1036129507913953 )
( 0.1049056264176556 -0.0074359037409947 0.0076043988658143 0.0956085938157288 0.0354766590986756 0.0868263525668208 )
( 0.1002078074596626 -0.0069916634095362 0.0016900473907079 0.089133864953003 0.0290361248883993 0.0758870015059715 )
( 0.0954478570710432 -0.0062317805558068 -0.00383370304184 0.0829944204664254 0.0218009542522102 0.0710511795126689 )
( 0.0907997546306718 -0.005299387593136 -0.0083751911628161 0.0773778367969693 0.0145501634394489 0.0720790613888964 )
( 0.0865212615072213 -0.0041851135745595 -0.0119438274384478 0.0721681889080469 0.0077831601293554 0.0766757053906107 )
( 0.0829715717207319 -0.0026862096446065 -0.015141472036619 0.0675142056756189 0.0020440076610564 0.0832519065751047 )
( 0.0801381128411522 -0.0012644656769495 -0.0178410289932715 0.0639244009192506 -0.0023650219807422 0.0895291424372787 )
( 0.0776993613052327 0.0002782372089987 -0.0198588205404792 0.0609902278081919 -0.0060399153063122 0.0952498972372077 )
( 0.0756252147537434 0.001845828894053 -0.021669497509327 0.0583703049061509 -0.0091413196820338 0.0997279122729115 )
( 0.074344864434526 0.0035616490986046 -0.0234452390504398 0.0559921746448823 -0.0120049544794674 0.1032851684086158 )
( 0.0736950109700661 0.005583194002978 -0.0251178850551065 0.0535321030360775 -0.0148290816502587 0.106390152729892 )
( 0.1391872736338202 -0.0143011757158503 0.0405840136731573 0.130585954497295 0.0451981115676236 0.2758840104472966 )
( 0.1286042879232822 -0.0071791974442909 0.0430533330825091 0.1282141558447617 0.0470363451943573 0.260700750693724 )
( 0.1199455099169548 -0.0037400439276745 0.0393738284550887 0.1255398068742602 0.0489863491765749 0.2275432466775184 )
( 0.112717201510604 -0.0019605626134985 0.0327118889872235 0.1199431863185764 0.0482391323071489 0.1907194372845767 )
( 0.1060607908338482 -0.001184893801426 0.0256170426739951 0.1114256119959453 0.0458754629852944 0.1577936406551668 )
( 0.1004054253696436 -0.0015766831047758 0.0187815868271023 0.1035779017842113 0.0423664359803658 0.1292904178243163 )
( 0.0955717663622447 -0.0019897499858159 0.0118690498680511 0.0965074691703954 0.0374928567913733 0.1062654900533393 )
( 0.0909262867545846 -0.0024662330157492 0.0055900431875427 0.090347958444345 0.0314247421508783 0.0907096856382001 )
( 0.0859918561929101 -0.0025114599600222 0.0006023673843912 0.0850544503453401 0.0242047310854917 0.0824454156456524 )
( 0.0818504366154669 -0.0022507742909181 -0.0046498054966979 0.0805048803512212 0.0165792119471769 0.0799275109539044 )
( 0.0786661358392731 -0.0017051798064436 -0.0096622028907905 0.0767035560615391 0.0092545505672735 0.0825913805613269 )
( 0.0751495458812839 -0.0005976800897441 -0.0137056404107988 0.0731715331136593 0.0022773257496533 0.0883028005474681 )
( 0.0724348282160403 0.0009208258489646 -0.0174444693579475 0.0696077416781506 -0.0040932126318496 0.0954068988136564 )
( 0.070981679032757 0.0028907427315783 -0.021043914002186 0.0665055401064321 -0.0090869677465038 0.1019627839933394 )
( 0.069928612457716 0.0050658751597937 -0.0239602894438688 0.0641882765409369 -0.0131907825363481 0.1073303466770538 )
( 0.0695021777279999 0.007169469672228 -0.0262554219560758 0.0623007673028474 -0.016497879291954 0.1112838631440567 )
( 0.0698624279281759 0.009404650579371 -0.0284129744286829 0.0607123932808495 -0.0192379667643773 0.1137353898827725 )
( 0.0708561832082699 0.0117435302222463 -0.0303838501067358 0.0591459043795624 -0.0216806376234183 0.1149977105619687 )
( 0.0723606355107407 0.0142419995278157 -0.0321757558897486 0.0573073281161932 -0.023840023107256 0.1150385041127595 )
( 0.1168004200223615 0.0012398033284389 0.0472195307259522 0.1196773293620185 0.0434143098223788 0.2671138756511523 )
( 0.1066604093396256 0.0064635025993869 0.0445871821749579 0.1154444364692159 0.0438981792239156 0.2421879280738937 )
( 0.0992912843054554 0.007009200172004 0.0362990297588839 0.1110527461840641 0.0444415657374499 0.2016819675112074 )
( 0.0936120242471753 0.0065170813055397 0.0271815821371779 0.1045205218945606 0.042884475481046 0.1636052912723141 )
( 0.0891521260517403 0.0057225732661296 0.0198693963917314 0.0967783490177248 0.0394330851884967 0.1346335611445575 )
( 0.0848331557472192 0.0042162046923659 0.0136113528721521 0.0900373026670054 0.0344930255421623 0.1127238168296463 )
( 0.0807467482945454 0.003066253086627 0.008118403444122 0.0848900391159124 0.0284646322734744 0.0984511150418696 )
( 0.0770912762484914 0.0018700889388166 0.0027037088928616 0.0814021121315089 0.0214355363948098 0.0921122621826679 )
( 0.0731950197162757 0.0013932464514929 -0.0020698383373212 0.0786398778031434 0.0132757161741887 0.0923962138544565 )
( 0.0705630400328615 0.0014590659853368 -0.0071163754086555 0.0764819837943203 0.0052144542872914 0.0962920642575294 )
( 0.0688161466475928 0.0020390510611809 -0.0122535307808782 0.0746092002608527 -0.002285952362339 0.1022605479663301 )
( 0.0673379796087577 0.0035898140463233 -0.0167034506937018 0.0726986494001309 -0.0092920090326815 0.1092124087588319 )
( 0.0673706605291925 0.0057110405945334 -0.0209526389343472 0.0709513773002467 -0.0150868771008384 0.1153276362238314 )
( 0.068392177558483 0.0082415256762145 -0.0248092721070592 0.0693087700223888 -0.0195983976102767 0.1198554429676851 )
( 0.0695683922709972 0.0108600932817155 -0.0279627365966671 0.0679001056178964 -0.0232447002423348 0.1229217880887821 )
( 0.0712213036476523 0.0131792672620743 -0.0302859155984615 0.0668537001803449 -0.0260144711402099 0.1243103496047467 )
( 0.0729961016319138 0.01556116736418 -0.0322931810608723 0.0656748176359277 -0.0281294293611119 0.1244080318019157 )
( 0.0749023897255938 0.0180287757039636 -0.0342438505660022 0.0642573635149793 -0.0298299876244573 0.1231849444153076 )
( 0.0769420398034105 0.0204690794270399 -0.0360001644911528 0.0623887953150952 -0.0310686667203392 0.1205057265839615 )
( 0.0990114039571568 0.0140565838588833 0.0488691493585558 0.107732678552664 0.0398899275625663 0.2512177639893305 )
( 0.0903413946212486 0.0175619976362885 0.0425153383815478 0.1020830099386218 0.0391699768559253 0.2192533718373833 )
( 0.0848375945607859 0.015453909956258 0.03199949550023 0.0970914886832058 0.0387646065767098 0.1777976916545574 )
( 0.0808522539827879 0.0126409314191507 0.023129714367279 0.0906574193820725 0.0368951933377406 0.1441011873288788 )
( 0.0775378749759254 0.0107541285608492 0.0170871184173129 0.0841135258244508 0.0327486449013806 0.1216550242644579 )
( 0.0750567884882498 0.008254599771116 0.0119169789431385 0.0797597577951562 0.0268667075579589 0.1083361195194058 )
( 0.0719381137005839 0.0061958362544285 0.0073312960633261 0.0770221023703819 0.0191484104671254 0.1033230189190882 )
( 0.0687313438878587 0.0045944111218826 0.0023606724623048 0.0760234223913501 0.0111196693739543 0.1049832621384862 )
( 0.0664099848120675 0.0038268646164479 -0.002642550141515 0.0758043730353677 0.0026581835121153 0.1108527806568486 )
( 0.0653368272954956 0.0040087404904472 -0.0079054838650602 0.0754977000833249 -0.0057221912978872 0.1171815539809453 )
( 0.0652103160671895 0.0050269597765718 -0.0133077665603696 0.0751586058691996 -0.0132973047163146 0.1235500551305997 )
( 0.0663084245213963 0.0070963657328512 -0.0183064204931794 0.074712925327464 -0.0200742211148585 0.1296402667146554 )
( 0.0686867547680625 0.0097058143501791 -0.0229166916674156 0.0741914015308419 -0.0249471314744573 0.1328734898091089 )
( 0.0714008650405746 0.0124442751437933 -0.0267981104411089 0.0735691356674039 -0.0284492998134344 0.134277930359561 )
( 0.0736135136518383 0.0150702068777613 -0.0296318350497847 0.0727344543297168 -0.0310844863033131 0.1343410052552299 )
( 0.0760698391782403 0.0174469507026095 -0.031894224215439 0.0719137294516296 -0.0330951909089484 0.133426885770649 )
( 0.0780932640396707 0.0197901477773901 -0.0340459270250358 0.0705808038046339 -0.034446379576165 0.1314669436407135 )
( 0.0797950860217088 0.0221307726228898 -0.0362538696781909 0.0688006168195403 -0.0352273010233552 0.1281840685098254 )
( 0.0813497603183754 0.0242708930746671 -0.038272993785498 0.0663108951205683 -0.0355589865267365 0.1238961270694497 )
( 0.0866491771943169 0.0244126096131827 0.0474321087122236 0.095274687847053 0.0350488608511504 0.2306591324776455 )
( 0.079532232890513 0.025937258070563 0.0392495413899002 0.088328850898335 0.0337949410653873 0.1954908639002152 )
( 0.075507796308331 0.0216225552010113 0.0290876459197556 0.0832589006582365 0.0333084389667182 0.1580138963676196 )
( 0.073057556666864 0.0170634778645231 0.0220086521777485 0.0781387290714933 0.0309656637159884 0.1327238738219142 )
( 0.0706993940246687 0.0136203021350738 0.0169553405526638 0.0739114247479472 0.026060778393893 0.1191011707863943 )
( 0.068720903695801 0.0103165215514327 0.0124657262831222 0.072501740872354 0.019206125508599 0.1145637613285433 )
( 0.0667676460480272 0.0076708908951349 0.0078958613717709 0.07244883742624 0.0106281762613497 0.1167731239558461 )
( 0.0650459486100346 0.0058084049594018 0.0029222217081109 0.0736274394798118 0.0017301781162362 0.1232356557016626 )
( 0.0641863513300988 0.0050031528050079 -0.0023674515701195 0.0756064099694403 -0.0070738780496611 0.131000942107398 )
( 0.0649323910250552 0.0054528405969787 -0.0080946211643609 0.0769048917453339 -0.0155515471849402 0.1380348081931016 )
( 0.0668633518891037 0.0071243220972578 -0.0135878461334076 0.0778519399899026 -0.0228027548580479 0.1427221109894024 )
( 0.069591933680066 0.0097376642633012 -0.0187414452175944 0.0784099264398809 -0.0286178912995656 0.1457775173865602 )
( 0.0729558309523434 0.0127145744112967 -0.023526520357399 0.0781411190684375 -0.032655350915348 0.1461588852785103 )
( 0.0760029344065852 0.0155550735904899 -0.0275457074950471 0.0778254652072995 -0.0351171805340998 0.1446186988429998 )
( 0.0781739102216309 0.0181544349837649 -0.0302724081410369 0.0771005256227629 -0.036588438837869 0.1423487401301569 )
( 0.0803407923584729 0.0205243503379826 -0.0327163241009028 0.0759179394293417 -0.0377842550717307 0.1396755880731118 )
( 0.0817199584551785 0.02264339110539 -0.0354009987089664 0.0741678283093342 -0.0383037665134157 0.1361444110371689 )
( 0.0825818824419503 0.0246143877164801 -0.0379920193584325 0.0717048433440366 -0.0382596906003254 0.1318046842613978 )
( 0.0828420223235474 0.0263667138716731 -0.0403096937121834 0.0683945782507216 -0.0377773121145347 0.1268863880408702 )
( 0.079739096765594 0.0321695079629512 0.0444333342211607 0.0838415581597977 0.0300413363523556 0.2084402724011585 )
( 0.0744329759920915 0.0308907318904055 0.0361449328414475 0.0761126382629151 0.0289980080753622 0.1738863279565652 )
( 0.0710545339058997 0.0248207954600222 0.0277710194685967 0.0713911781202732 0.0288088206330784 0.1440883242963925 )
( 0.069454926611509 0.0194423492040796 0.0226338457906053 0.0683590467456314 0.0257121114743381 0.1291152581578387 )
( 0.06750270946934 0.0148526634377983 0.0184131463701317 0.0671849169987295 0.0198648055951356 0.1244317002695587 )
( 0.0653620926874642 0.0109210632799487 0.0139819338719482 0.0680681011418112 0.0120889768241195 0.1270314672952467 )
( 0.064432371545935 0.0079579347411086 0.0093978240625752 0.070181079322718 0.0027119820081744 0.1343969086035571 )
( 0.0645159627404261 0.0060756688807731 0.0042265748251875 0.07324025409598 -0.0072960146930587 0.1436088425724731 )
( 0.0650889553153137 0.0055463461874591 -0.0011999486264588 0.076577392776533 -0.0164558413845622 0.1514222757524609 )
( 0.0672758748604803 0.0064383078112833 -0.0066022906228177 0.079269431374957 -0.0244694757770865 0.1567624140159315 )
( 0.0704096435155098 0.0086562533956165 -0.01259529693468 0.0811712434432613 -0.0305355122224842 0.1580437736337191 )
( 0.0735617125609613 0.0116367491342691 -0.0184965942388912 0.0819524346625594 -0.0348180759976445 0.1571678853718257 )
( 0.0768240845770574 0.014823582702878 -0.0234471286597367 0.0817467578200282 -0.0378320866782491 0.1551769089588555 )
( 0.0794230687239869 0.0177241613837624 -0.0276041364501195 0.0813362211659347 -0.0394248033876448 0.1516540067652953 )
( 0.0813156391306568 0.0202309115768978 -0.0310014170263138 0.08027978351184 -0.0402244244086711 0.1479193334444415 )
( 0.0825017264925446 0.0224390737930447 -0.0340449073022611 0.0786917306037684 -0.0406766143605819 0.1442001528337924 )
( 0.0827349141152118 0.0243627321771236 -0.0369510389925224 0.0764841956293301 -0.0404170688622263 0.1399996120061491 )
( 0.0824727616615634 0.0260920089252183 -0.0395837270042837 0.0733861602494668 -0.0396686749442385 0.1352548253020726 )
( 0.0817342193305571 0.0278002090262709 -0.0419561469417023 0.0694196318477229 -0.0386192307944882 0.1301990092278687 )
( 0.0777199822613018 0.0367334048702799 0.0415653043174724 0.0737163530455102 0.0253266315486854 0.1882111536589623 )
( 0.0735899445663036 0.033332677370443 0.0344472706094667 0.0664437409040798 0.0247936317532202 0.1583711329767077 )
( 0.0701143605413612 0.0259887032228126 0.0280229345279288 0.0625423760334307 0.0246426553419103 0.1382588065169407 )
( 0.0677375980786451 0.0198785143463768 0.0243295126826031 0.061423675822477 0.0209792802951679 0.1327016856389834 )
( 0.0653369557121951 0.0147860123870955 0.0207291921118386 0.062380428241987 0.0139810917982741 0.1351355561968075 )
( 0.0640549487378857 0.0105038461809432 0.0163563041193564 0.065189974815941 0.0051364531414276 0.1435244002083343 )
( 0.0645558552189266 0.0074465646131687 0.0119274446853384 0.0691094013065172 -0.0050926070735629 0.1542987732507418 )
( 0.0656572143024226 0.0058075754586884 0.0066682094318624 0.073681482775206 -0.0154226047501301 0.1640771486757765 )
( 0.06701175386816 0.0058298418183498 0.0010008264236704 0.0782446355858253 -0.024251751514205 0.1699880301231864 )
( 0.0699880957719381 0.0073546889530938 -0.0045095293864491 0.0819742419132045 -0.0314692306749121 0.1721016744146375 )
( 0.0734762063822504 0.009972751468087 -0.0112665863949984 0.0844174974900488 -0.0362789038248069 0.1697895387854103 )
( 0.0768736815310158 0.0132898374198142 -0.0181984383299491 0.0853338471946597 -0.0394783480377774 0.1654745789473213 )
( 0.0796855350570412 0.0165491473266183 -0.0236325329805659 0.0850446030856427 -0.041458976347656 0.1612586902881303 )
( 0.0813529545727831 0.0193322089065042 -0.0281740022504887 0.0841701761081031 -0.0421612973993437 0.1563027934189869 )
( 0.0823406419220166 0.0216520003423687 -0.0321576877409361 0.0826727846883752 -0.0423425846331082 0.1516447504200446 )
( 0.082453601712172 0.0238219474974425 -0.0354408210784933 0.0807517765469068 -0.0420984400234784 0.1474266573137244 )
( 0.0819106307917566 0.0258188712505996 -0.0383319827078833 0.0781305872385354 -0.041389337223458 0.1431874466566905 )
( 0.0809112029642861 0.0276532481667705 -0.0409103341920383 0.0746471211554536 -0.0402642582151098 0.1384468131328269 )
( 0.0794340080485069 0.0295306106161575 -0.0432674767242971 0.0703187661695501 -0.0388801492506091 0.1334356227577052 )
( 0.0788081637090826 0.038821102196153 0.0394096137869818 0.0642207514419942 0.0215120782282777 0.1709207495256953 )
( 0.0746199422135257 0.034057548838208 0.033927418542512 0.0581829646077659 0.0214883791451674 0.1480825260409284 )
( 0.0701451384161797 0.0256357478840488 0.0294681970004471 0.0560237903455282 0.0209028958548828 0.1383402372649473 )
( 0.0672238328918487 0.0190869590364712 0.0268133025936284 0.0564118486976443 0.0164294055209376 0.1410574622344966 )
( 0.065104185218536 0.0136167174910303 0.0235976623819643 0.0590011924481052 0.0084173850632153 0.1495088380464176 )
( 0.0645747939952423 0.0093558205609524 0.0195368001651704 0.0634250142199841 -0.0015798547046451 0.161746237976775 )
( 0.0656058809493267 0.00652857856336 0.0146259593922085 0.0689281171842993 -0.0121145841730733 0.1729995899513196 )
( 0.0669236935245238 0.0053348356434762 0.0089042145337165 0.0749060651791747 -0.0220823027000818 0.181179707466486 )
( 0.0691717919367376 0.0061118029576664 0.003116061206652 0.080404235957292 -0.0303355647111281 0.1838486895073585 )
( 0.0725800782188852 0.0082538497464994 -0.0034697109215299 0.0847067112764833 -0.036468539932199 0.1824218422126698 )
( 0.075854969452652 0.0112954058841976 -0.0109694638737465 0.0874412330805797 -0.0402317516103954 0.1775736888349718 )
( 0.0790046692166063 0.0147234253469655 -0.0181923788399351 0.0883814805492783 -0.0427130326772178 0.1716491465305687 )
( 0.0811390801697018 0.0179798472664258 -0.0243166290967692 0.0878297166967579 -0.0438777268231076 0.1656452550969624 )
( 0.0818521339082135 0.0208091609694513 -0.029286466522402 0.0865186073149799 -0.0438683989541615 0.1594474691526824 )
( 0.0817871111084802 0.0231727776676964 -0.0333619549586673 0.0847026500353589 -0.0434033748102648 0.1543499520897395 )
( 0.0811441266955116 0.025347567726184 -0.0364701017753709 0.0825772887694385 -0.0426269706142331 0.1499883994081512 )
( 0.0800405236327175 0.0274519364981209 -0.0392800499753214 0.0797127738279135 -0.0416586859507745 0.1458211676593031 )
( 0.078427236752428 0.0295402069268283 -0.0418347346798219 0.0759161927404566 -0.0404439124933573 0.1412043792689796 )
( 0.0763377333136817 0.0316123514020709 -0.0441064445654389 0.0712256149354896 -0.0389477363710307 0.1365161516802553 )
( 0.0817103951079159 0.0388693902717112 0.0383493539041975 0.0562378942214581 0.0189192674108824 0.158258094756731 )
( 0.0758540208261408 0.0327661495477453 0.0347524535217032 0.0512332053096351 0.0197169868596341 0.1434280037867202 )
( 0.0699848951046604 0.0241906792580107 0.0316312381229458 0.0510768684398946 0.0180274436242948 0.1430531804926302 )
( 0.0672583786365163 0.0175180093988 0.0295609203903508 0.052975774583123 0.0123185029109121 0.1518467142079969 )
( 0.0658596816183652 0.0119122787447567 0.0264794076241153 0.0572312711337666 0.0031184953248085 0.1647101433480272 )
( 0.0661135881616375 0.0078335920231953 0.0224192810287153 0.0630688449821189 -0.0080114691372152 0.1785730746526282 )
( 0.067161393824354 0.0056382500558145 0.0172107781401963 0.0697990167092261 -0.018751030730657 0.1892443501150429 )
( 0.0686342068121957 0.005117301283009 0.0109973822357408 0.0769598514086808 -0.0279908923917232 0.1952851082667354 )
( 0.0716041120051338 0.0062464255508643 0.0047429078081608 0.0831309934358691 -0.0354863887311176 0.1952737759614462 )
( 0.075023417352261 0.0088011944833757 -0.0023786116165985 0.0872016196212305 -0.0404833585065927 0.1905350492315132 )
( 0.0778260483187689 0.0123761927420422 -0.0109377367898902 0.0898313727348162 -0.0432628578905812 0.1831159420344546 )
( 0.079998656853476 0.0159294798164264 -0.0185826610426412 0.0907253853504546 -0.0449047126367657 0.175832126801989 )
( 0.0811436913186633 0.0192564470924638 -0.0249227310614713 0.0900873769481026 -0.0452472682157644 0.1687399707496879 )
( 0.0811218095619581 0.0221626228250927 -0.030160622867557 0.0886647592814207 -0.0447163693188678 0.162061673140159 )
( 0.080507433364947 0.0246552972944074 -0.0339819618392583 0.0867717500337518 -0.0440294687671656 0.1570716296092243 )
( 0.0792133552771532 0.0269323215458033 -0.0370420456355916 0.0844363430791481 -0.0430664245748277 0.1526054654583562 )
( 0.0773974402409783 0.0291796106312186 -0.0398611541763526 0.0815216986200259 -0.0419304986125107 0.148334008791422 )