/*--------------------------------*- C++ -*----------------------------------*\
| =========                 |                                                 |
| \\      /  F ield         | OpenFOAM: The Open Source CFD Toolbox           |
|  \\    /   O peration     | Version:  2112                                  |
|   \\  /    A nd           | Website:  www.openfoam.com                      |
|    \\/     M anipulation  |                                                 |
\*---------------------------------------------------------------------------*/
FoamFile
{
    version     2.0;
    format      ascii;
    arch        "LSB;label=32;scalar=64";
    class       volVectorField;
    location    "0.001";
    object      U_LES;
}
// * * * * * * * * * * * * * * * * * * * * * * * * * * * * * * * * * * * * * // 
 
dimensions      [0 1 -1 0 0 0 0];
 
internalField   nonuniform List<vector> 
13597
(
( 17.474880020777636 1.933556248175633 0.0201771387752601 )
( 17.480354500007117 1.9803669026238715 0.0252197895042801 )
( 17.503698043377163 2.072593094329111 0.0360924750476426 )
( 17.540350467633463 2.188810379082175 0.0501683664549939 )
( 17.571313191010248 2.285522907631318 0.0624615062959258 )
( 17.592521982699846 2.362489324596762 0.0728959999703938 )
( 17.616975330597892 2.436452270543328 0.0832139882211923 )
( 17.64341459050176 2.514883948107794 0.0940458089316657 )
( 17.672216964969735 2.5920934262538795 0.1045274703219339 )
( 17.702719590984042 2.6681184344143576 0.1143853983286344 )
( 17.733343945233983 2.752542762097162 0.1250867469816168 )
( 17.769405334578938 2.83609191594115 0.1352447920706675 )
( 17.80760500157017 2.917805765767538 0.1441567381961442 )
( 17.844859519657945 3.004619559359256 0.1539302527474463 )
( 17.882259953439835 3.094603845692616 0.164879217091505 )
( 17.921679617743035 3.184396663824128 0.175624491010038 )
( 17.96368776281893 3.2707403523914333 0.1841293195241762 )
( 18.006243463577995 3.3580018981798943 0.1923653819422364 )
( 18.049637208561894 3.449368753944758 0.2018309881583143 )
( 17.32820698898144 1.988106478143108 0.0181075143599128 )
( 17.313205501529882 2.049088309696448 0.0248234882405045 )
( 17.311189301999715 2.169933373364456 0.0413739505723253 )
( 17.313486510013394 2.304356156049779 0.0619831220321559 )
( 17.30880977125004 2.4054852823193857 0.0782548569763875 )
( 17.300650676054435 2.4965076477619847 0.09314477210632 )
( 17.29733565128837 2.586175607448009 0.1079503083624364 )
( 17.293776291260258 2.6794845725021905 0.1233082108307687 )
( 17.29412675558305 2.772707464011003 0.1385717912741141 )
( 17.29536220113462 2.8650602131262124 0.1528155838333356 )
( 17.29517538663841 2.9676537097398934 0.1684501170685186 )
( 17.295093899636704 3.0760697620344053 0.1841090485610043 )
( 17.294165756442442 3.185548803472071 0.1990696692308846 )
( 17.29667935797668 3.298887487059085 0.2139037123247219 )
( 17.30098488917871 3.410500969537098 0.2281400277160687 )
( 17.30808290678986 3.516769531926575 0.2405831026222543 )
( 17.316733847591255 3.614981111719363 0.2506192892484618 )
( 17.324018344213034 3.716247477871759 0.2601568552791434 )
( 17.336650926057004 3.817404225050158 0.2690896165619235 )
( 17.178758006369662 2.026607522999033 0.0193770915352412 )
( 17.138807629594748 2.096828775596331 0.0298804876905298 )
( 17.106677736846663 2.2336651251154205 0.052342398127283 )
( 17.07245928688167 2.376974490204421 0.07788838892676 )
( 17.03316122451166 2.4813156941152084 0.0977913792934865 )
( 16.999743671221214 2.582097625550017 0.1168144144505682 )
( 16.971413991140512 2.68453119713519 0.1347738643320452 )
( 16.936540513060883 2.78824473905586 0.1520594788403659 )
( 16.906092107592723 2.895517721515376 0.1696670873388848 )
( 16.879905287348564 3.011226098043152 0.1862241154074078 )
( 16.851326944771614 3.1332909245550766 0.2020598099311135 )
( 16.822641105157068 3.264396252470416 0.2173811664452487 )
( 16.795784835182797 3.4001326910064416 0.2315202067219473 )
( 16.773496681798367 3.5309611606564983 0.2432536435172183 )
( 16.75526898481326 3.6515019452476776 0.2520391103447641 )
( 16.74087095063128 3.75914754063767 0.2586143150287984 )
( 16.725542099262167 3.856416825057783 0.2628600234731716 )
( 16.70964838986155 3.9545374516906415 0.265478495510829 )
( 16.70289458064332 4.05656602157736 0.2671112801500009 )
( 17.026423693548892 2.0475004266821157 0.026460501759805 )
( 16.962522356271307 2.123108899312937 0.0420129622462538 )
( 16.902569637731762 2.265367425084612 0.0689737806509503 )
( 16.836315868057046 2.412096971452127 0.0979180455922561 )
( 16.76688010775017 2.521605126366663 0.1205949541694023 )
( 16.706127294734884 2.6281917646544155 0.1405067688883032 )
( 16.646193575664142 2.7411599192164413 0.1589831809740228 )
( 16.583687750053627 2.857480860565169 0.1751360943411172 )
( 16.52982766114499 2.97891703958268 0.1901552802399169 )
( 16.481164975188445 3.110003821223522 0.2032491092322474 )
( 16.4297819019459 3.2496752064191767 0.2134579373232346 )
( 16.384249927967094 3.396078535606214 0.221958950126176 )
( 16.344865895504753 3.5429173411992707 0.2274647963161283 )
( 16.305395021132938 3.6836468282693264 0.230012695692267 )
( 16.26756420089261 3.805681678023469 0.2296494738889967 )
( 16.233663394262226 3.910598566777862 0.2276636490301363 )
( 16.200407990839736 4.006154038858224 0.2242484405870341 )
( 16.165209616861105 4.103241499214636 0.2190904320927383 )
( 16.134336695248315 4.211174150825801 0.2134884134142594 )
( 16.879229033891157 2.051273690965283 0.0385332177122858 )
( 16.79859291940538 2.13136905284452 0.0592623126493586 )
( 16.710344943237235 2.2787750314467266 0.0897714633813023 )
( 16.61402973778689 2.4250352175560685 0.1184048026238822 )
( 16.521937410336633 2.536865143522336 0.1397901167483217 )
( 16.437423637296288 2.6490151281302463 0.1574054052736086 )
( 16.35179757054666 2.770676958844064 0.1720737554012786 )
( 16.268522773491814 2.896380262271785 0.1837381498094778 )
( 16.195216575971557 3.025762428556386 0.192100498623912 )
( 16.124523790702078 3.165992037571866 0.1970985628892426 )
( 16.053011704805275 3.320705381530768 0.1993511909115342 )
( 15.9866895063217 3.479913815801291 0.1989710132693571 )
( 15.924284700220507 3.634336261649124 0.1951874637266427 )
( 15.861780149968626 3.778619498030313 0.1894016285394934 )
( 15.799240353680297 3.897577391830532 0.1819615173074903 )
( 15.738861884861771 4.004573351696063 0.1740528744338448 )
( 15.681345254731225 4.107129364280996 0.165616345007401 )
( 15.624465756889563 4.210192781059827 0.1563163130191833 )
( 15.568014669326624 4.325942154490526 0.1466949659793198 )
( 16.74343882015518 2.0371510979750327 0.0544603438328928 )
( 16.6457824448926 2.121744809341002 0.0782674985727391 )
( 16.528086082917078 2.2763893824640222 0.110099490382312 )
( 16.408286383578847 2.422035401944993 0.1357152432798917 )
( 16.299374564050897 2.5357134895185727 0.1526000719118357 )
( 16.19720532472307 2.653408927090064 0.165746979258116 )
( 16.096568831159637 2.778466894794072 0.1743224036666857 )
( 15.994560221150596 2.9085840766889124 0.1792114321281122 )
( 15.89413647174895 3.045565084417978 0.180123638608384 )
( 15.797147238382705 3.1995087480248263 0.177199326772894 )
( 15.70510292089423 3.362825431472813 0.1718667866166315 )
( 15.612383500469493 3.52675296239678 0.1636086273072056 )
( 15.523340877183736 3.686373629366626 0.1533043062453061 )
( 15.437749848657123 3.830997571110777 0.1426397260329915 )
( 15.35027532074641 3.951637200485883 0.1315142449051535 )
( 15.268744174394705 4.058245552011042 0.1209736988783134 )
( 15.188743699705036 4.161758569171325 0.1105421730721352 )
( 15.107995313605944 4.26702463830262 0.1003164098675644 )
( 15.027554744542238 4.386594824245644 0.0901283405879617 )
( 16.61217293138822 2.0100348469823963 0.0726824130306938 )
( 16.497652652942353 2.1006602753606267 0.0967368180951219 )
( 16.357948907814993 2.260311963409193 0.1251796510232204 )
( 16.220742554523408 2.4031429700909253 0.1461223898370524 )
( 16.097550625924445 2.5177806933242985 0.157982329986271 )
( 15.976296066579431 2.6375027484371083 0.1650952798820674 )
( 15.857092239373369 2.7666199421630644 0.167698786298675 )
( 15.736592166145986 2.9028604980218886 0.1655888944135378 )
( 15.612041637594215 3.0450333367194 0.1597779136809769 )
( 15.49456507775863 3.20522816083727 0.1511840279643511 )
( 15.37761309566672 3.374313284111099 0.1400688108018857 )
( 15.256039471889318 3.5437009240609485 0.1269890717115061 )
( 15.141822998879938 3.702977611405336 0.113806263435784 )
( 15.031764208050229 3.84486985501226 0.10152029428021 )
( 14.920266838183942 3.969504084989481 0.0893170978677964 )
( 14.814763668510494 4.07451418631839 0.0781426124249392 )
( 14.71247828849746 4.175862692756664 0.0680630672105372 )
( 14.607767944031886 4.285669840419875 0.0579635258270608 )
( 14.503380937037967 4.408876515358736 0.0478680389129349 )
( 16.492036267763975 1.9747669320113093 0.0893664555964588 )
( 16.361909818815864 2.0668432756676958 0.1117345618020331 )
( 16.20400033976058 2.227749830425194 0.1351009137758407 )
( 16.050306481255557 2.369113225325077 0.1503708421100934 )
( 15.91055547460787 2.485474838874836 0.1568450988067765 )
( 15.771355350494348 2.609911707201139 0.1579339941181347 )
( 15.63129673860172 2.7447151980027398 0.1543355331729292 )
( 15.491528035872117 2.882051270727701 0.1469536766261369 )
( 15.344231562259896 3.026420945263784 0.1363134452641423 )
( 15.203033857264655 3.192554241737048 0.123829162403485 )
( 15.05799373841558 3.365818571652781 0.1093878270641544 )
( 14.911692765166926 3.5389869448716635 0.0945253158920981 )
( 14.772532499597528 3.699176416360655 0.0811583778183207 )
( 14.633860452281333 3.83568904514812 0.068343520041602 )
( 14.503733032153628 3.9540884558272023 0.0565750696300161 )
( 14.376261773728752 4.059245835265383 0.0457290675846355 )
( 14.250820199712956 4.16430645726609 0.0357779149873517 )
( 14.124773258373112 4.2800595329055175 0.0259086021552282 )
( 13.999223677018891 4.408097596615524 0.0162355430476544 )
( 16.382443160298326 1.926744892870496 0.102927446596089 )
( 16.236154407992984 2.016334861699905 0.1219315612678681 )
( 16.059829569074086 2.178677154180684 0.1400443986207334 )
( 15.892229899652223 2.320724595441012 0.1499949422596124 )
( 15.733266834239478 2.442998194188568 0.1513869334495492 )
( 15.578196562477055 2.569624731615612 0.1471248565331844 )
( 15.421274893272177 2.7036694024772565 0.1384896358668704 )
( 15.262287428419889 2.847650194004094 0.1277475268153618 )
( 15.095354757146136 2.998810166115714 0.1140327820674626 )
( 14.92106094930403 3.1645661219329004 0.0984733883680053 )
( 14.74919325892175 3.340127841878621 0.0829843381796134 )
( 14.582944108506632 3.5124029804918866 0.0683261444080568 )
( 14.415641978599396 3.671844861435901 0.0549087028763777 )
( 14.253111042710822 3.807432869522133 0.0421890836283162 )
( 14.105660048643635 3.921604323313516 0.0311292017229442 )
( 13.957307423508093 4.02881938715869 0.0204500176687064 )
( 13.80931749266686 4.1360074904220205 0.0105884796641988 )
( 13.661535893330624 4.253914497843141 0.0016015531479322 )
( 13.51250390326988 4.386659309774003 -0.0069422973560997 )
( 16.2762543571455 1.8747475759633756 0.1136566354484411 )
( 16.114170280147874 1.968927709255805 0.1288368947482709 )
( 15.92233621453722 2.130831051494737 0.1413251949628774 )
( 15.7422100885943 2.268463654812203 0.1455905322542731 )
( 15.56858245127853 2.3961134126918253 0.1425378717420841 )
( 15.397393484537034 2.5204562342273755 0.1341507713720459 )
( 15.219461181716955 2.64959970572907 0.1219123218949108 )
( 15.034311769993677 2.79550960806649 0.1076294697409018 )
( 14.848527787926209 2.9477779192176383 0.0922327846207916 )
( 14.652549521195546 3.1145496968892763 0.0764456073220165 )
( 14.457400331968843 3.296561216714854 0.0610400242028117 )
( 14.26892367771199 3.4720652306049957 0.0469836494606583 )
( 14.080375578264604 3.6268788262908593 0.0338502646056865 )
( 13.900931207862095 3.761910905240628 0.0216911498105811 )
( 13.73092927074698 3.876223878517655 0.0111025136382099 )
( 13.559456287036683 3.9819250165685935 0.0012046521484074 )
( 13.386449185170155 4.088996422585049 -0.0077727643679503 )
( 13.215966090306924 4.207947313123921 -0.0161799523452977 )
( 13.046491913712227 4.346724038342096 -0.0246572309860207 )
( 16.178979755190365 1.82280716066966 0.1206045630237067 )
( 16.00531456315856 1.9227845288041343 0.1315664835583015 )
( 15.7935135508455 2.0816617600064924 0.1391733534016805 )
( 15.602219346971124 2.2127324943881503 0.1384477345875943 )
( 15.415477898854764 2.338215990237317 0.1314607667334797 )
( 15.22387831312275 2.461755068322186 0.1201914706902125 )
( 15.026005078627955 2.5870030265730057 0.1056331881517022 )
( 14.8223172714628 2.727043328141717 0.0894413270904116 )
( 14.614589850146052 2.883748513771497 0.073498172980298 )
( 14.401881002129246 3.0543424113257176 0.0584465320109655 )
( 14.185736214430818 3.2364615023507795 0.0431447021128215 )
( 13.969820538992105 3.417740298575724 0.0290027237159848 )
( 13.766395777065645 3.5701174873473867 0.0168968850664546 )
( 13.570628468547616 3.703866509224076 0.0055851269941379 )
( 13.374125375452945 3.8193523720763616 -0.0045588528442015 )
( 13.176992500217729 3.9229913608393097 -0.0139472354453781 )
( 12.9817156104385 4.031192807557125 -0.0228827726951779 )
( 12.79372647580512 4.153892753315745 -0.0317201119940591 )
( 12.604782031699893 4.300364266511961 -0.0405530576498422 )
( 16.085948584099167 1.765481503851823 0.1238657670528112 )
( 15.89835736659037 1.8693551834524744 0.1306294951689278 )
( 15.66991536505318 2.028528248659634 0.1339191725528268 )
( 15.46820376937415 2.15233338818298 0.1295547566274222 )
( 15.26656168997778 2.270472700896659 0.1195901673717569 )
( 15.056344877300743 2.3938128594134382 0.1062647241766849 )
( 14.845412031656146 2.524000360861732 0.0907410536165999 )
( 14.624539697562597 2.6651674385601787 0.0742972890823323 )
( 14.397028832886637 2.8236877025237144 0.0580663343200756 )
( 14.164905983391908 2.992960233912348 0.0427231179069504 )
( 13.928824259163571 3.170947776841681 0.0281783320757665 )
( 13.691583475224528 3.347243774341357 0.0148191965898339 )
( 13.46548338849982 3.502557037225823 0.0030060375001565 )
( 13.24682705265969 3.641732495422816 -0.008268614041787 )
( 13.02612713316504 3.756383041095594 -0.0183659084444163 )
( 12.810615289639232 3.856410112147685 -0.0277593045424584 )
( 12.601512424557248 3.965906054402348 -0.036870541721767 )
( 12.396376577308288 4.098344697320945 -0.0456557915834142 )
( 12.187756138867964 4.255120135078977 -0.0534602115549386 )
( 15.995003001326973 1.698457193421724 0.1240912353973706 )
( 15.793871183059885 1.8051210135059927 0.1272733973151193 )
( 15.556568720395209 1.9669253438470784 0.1267634259727283 )
( 15.341244726025746 2.0907337982869016 0.1201516878056763 )
( 15.12627872953628 2.2099579296346965 0.1083743894848196 )
( 14.902662030116876 2.3331519048410723 0.0933953221289585 )
( 14.676529325493313 2.463163038176482 0.0773059674680463 )
( 14.436004859517777 2.6013746876302446 0.0608036799929737 )
( 14.189238030022633 2.754464149300825 0.0445767686083002 )
( 13.941392637856268 2.9252108720885617 0.0297804165232835 )
( 13.684072010167718 3.1078545740523698 0.0158297759605435 )
( 13.428082751032855 3.27997911596321 0.0026913720894186 )
( 13.176692930683345 3.434379505813154 -0.0089475789290091 )
( 12.929891676431998 3.5723733056440974 -0.0204073937005328 )
( 12.69503420234023 3.680756429903936 -0.030812078358268 )
( 12.470490850477027 3.78202519969694 -0.0397513798403901 )
( 12.245618587924437 3.8983209690160256 -0.0480888844328535 )
( 12.018330214028405 4.03829617609854 -0.0556149934248299 )
( 11.781826127257428 4.208635357208977 -0.0615035378761176 )
( 15.910172338988996 1.6247775825570272 0.1213915204278849 )
( 15.70174793713348 1.7355436823382309 0.1217124728633191 )
( 15.45142323899943 1.8990783250629504 0.1182066393685507 )
( 15.22301695150242 2.024270703234579 0.1096900802490391 )
( 14.99380092420126 2.1446827174765786 0.0969140941833549 )
( 14.760399420797158 2.2634789093570147 0.0812856391943893 )
( 14.519519616326072 2.390605887997225 0.0653468538937135 )
( 14.26838304582212 2.527397800763891 0.0498629798779162 )
( 14.00307272484558 2.6767314476060715 0.0341813182518923 )
( 13.73306878617242 2.847927001714881 0.0192692314864913 )
( 13.454622708655352 3.032911268747523 0.0049409479001889 )
( 13.174318060513793 3.209607177576212 -0.0083005567586637 )
( 12.902048144110712 3.365774196746071 -0.0196788858665445 )
( 12.640298058156253 3.494500065849304 -0.0307028370149257 )
( 12.39214487410971 3.5988313453194154 -0.0406068240555804 )
( 12.14860181284639 3.7081123358369457 -0.0489293814256456 )
( 11.902821942677784 3.837602587365989 -0.0565985277191215 )
( 11.64718970667288 3.980460069957469 -0.062526484928656 )
( 11.37374355139494 4.156022118048615 -0.0667560138123589 )
( 15.831062316253233 1.554272239718117 0.1165855715509566 )
( 15.611942975573616 1.66962053368745 0.1144585476346166 )
( 15.341109591454426 1.8355457679997145 0.1088893393394183 )
( 15.102697075732836 1.954023654398756 0.098390205377896 )
( 14.86623048090461 2.0697719353964903 0.0855733610650644 )
( 14.625541301832731 2.186841477130109 0.0707751619899808 )
( 14.37040463730702 2.31069353023901 0.0551597364389053 )
( 14.1033458565613 2.4480493786511253 0.0401937758848521 )
( 13.82557819212327 2.5958717661136586 0.0251218881514086 )
( 13.536362821142014 2.7630527110943146 0.0099298395208719 )
( 13.233531908706688 2.9491381732213746 -0.0049183282634707 )
( 12.92826440921749 3.1261851305713555 -0.0177920499680008 )
( 12.635277027566788 3.284528353792671 -0.0290860346828796 )
( 12.364340877833438 3.410298767932821 -0.039669774791441 )
( 12.104050736647046 3.515679829683418 -0.0485514884616481 )
( 11.839877215753372 3.630758815254552 -0.056253150408175 )
( 11.564483996153603 3.7662093363284734 -0.0629235428424924 )
( 11.274388836839456 3.9210241530277816 -0.0675439166077506 )
( 10.981071158510536 4.118048415161598 -0.0722050974176472 )
( 15.75534287705006 1.487635251923909 0.1101243075620888 )
( 15.52558809298992 1.6046660894574656 0.1062221655617494 )
( 15.241621765231752 1.7693267158913604 0.0997195802600037 )
( 14.993018100228689 1.8799357960293492 0.0880250120248056 )
( 14.749696688555376 1.987380779814962 0.0749880126192361 )
( 14.499726468833629 2.109501414368215 0.0614456242856988 )
( 14.232873432700885 2.228551786096526 0.046357449555838 )
( 13.947302423554746 2.358318320443602 0.0311693092571729 )
( 13.652495457127676 2.5101661541142737 0.0163925277016687 )
( 13.345587120149196 2.6737170795155563 0.0016206414448242 )
( 13.015552119877803 2.863404850162573 -0.013091059613992 )
( 12.684792078393508 3.0451574277672524 -0.026441763768734 )
( 12.382802663505055 3.196171346100631 -0.0374527297718697 )
( 12.105998332885298 3.319507219285266 -0.0463663818980012 )
( 11.830077381369003 3.430939380256569 -0.0546260370047071 )
( 11.541780748339932 3.551126005320187 -0.0620217966888765 )
( 11.2332664198853 3.6905514624855305 -0.0667383095158299 )
( 10.913542483082072 3.8645778933822448 -0.0722775528267241 )
( 10.627838843270906 4.107758619584788 -0.0802409233969739 )
( 15.683965569543185 1.4225367517435543 0.1025196541634915 )
( 15.441367256351926 1.536921671880491 0.0972975860948161 )
( 15.1495252937025 1.7012949376414008 0.0905049692070283 )
( 14.897881506180386 1.808624057943095 0.078819123186388 )
( 14.644714678647556 1.9122416366362496 0.065876362516042 )
( 14.379045087414829 2.0313354752786177 0.0524342134241214 )
( 14.099558005845326 2.143348131081728 0.0376252209486722 )
( 13.807619097020568 2.2710220135994166 0.023055755274843 )
( 13.49458304932518 2.424370557699308 0.008489864479366 )
( 13.163353277739878 2.5815463442984097 -0.0062854048411482 )
( 12.821282374131322 2.7661225060993604 -0.0198944443443045 )
( 12.473096731722736 2.960225991253238 -0.0328093062758471 )
( 12.158584540958197 3.1099436205484654 -0.0431607223915648 )
( 11.865972459133635 3.2273760382233085 -0.0512055692061412 )
( 11.564201239640854 3.3439410509341667 -0.05986841468857 )
( 11.24162927474021 3.4658164888365555 -0.0668142513582507 )
( 10.90659642782998 3.6179393470358745 -0.0721754721257927 )
( 10.5850928819728 3.823275803139638 -0.0805011466781592 )
( 10.32452267673527 4.119935747989951 -0.0889835252049986 )
( 15.612892412454702 1.357843300738127 0.0939600889860745 )
( 15.361998802140889 1.4693075639450734 0.0882635964434308 )
( 15.063006198881368 1.6286611365118635 0.0812749043804224 )
( 14.810162508943517 1.732359549921893 0.0698890746559682 )
( 14.549255295459211 1.8387616016843171 0.0576385942034633 )
( 14.269540947000362 1.953586630876248 0.0446131152978102 )
( 13.980663313665172 2.054521624256339 0.0300506763009405 )
( 13.67662137739867 2.1834692687521504 0.0160221985258385 )
( 13.344637254659924 2.338823673127141 0.0017025028378441 )
( 12.99523316334326 2.498023597955202 -0.0127094800513205 )
( 12.63398989043194 2.673146202670215 -0.0257338309314183 )
( 12.271884041555811 2.8540060541474626 -0.0376077557181291 )
( 11.943878466296212 3.007516738517802 -0.0474591593707405 )
( 11.626995802916776 3.132349782507143 -0.0559086553279743 )
( 11.297477915449324 3.2446313730286045 -0.0642170178760047 )
( 10.95059398623223 3.371107177480433 -0.0710288034423092 )
( 10.599890827067378 3.543108371701797 -0.0788443786792532 )
( 10.2965735301185 3.796643423811021 -0.0889156637959963 )
( 10.032035540804172 4.14592938039964 -0.0963646339071215 )
( 15.546890331665065 1.2910163853330816 0.0848839046372779 )
( 15.29054660957284 1.3986868804873862 0.0794565800214422 )
( 14.981780629320903 1.5494607879283488 0.0722387783113482 )
( 14.72703290581167 1.653694990557229 0.0614082992298254 )
( 14.458628835416953 1.7578716971847994 0.0499917587937301 )
( 14.16535489011098 1.8707066790376667 0.0373278289322062 )
( 13.875310862309478 1.9717589729561675 0.0234402075886346 )
( 13.556822432660407 2.090752832841181 0.009590298581363 )
( 13.203087318987784 2.2443510793841317 -0.0049809159658856 )
( 12.833861221901827 2.409231531324487 -0.01875893710275 )
( 12.44767933211376 2.584278137479791 -0.0313891152242175 )
( 12.079757947516786 2.752773685860402 -0.0429814058528203 )
( 11.733086989655472 2.898733759860105 -0.0529944176171906 )
( 11.388163013960773 3.027988355641644 -0.0608321465005307 )
( 11.04162642169818 3.146159695106539 -0.0674574195340336 )
( 10.680998354719808 3.289157857318711 -0.0745636664525961 )
( 10.325708570830002 3.4902971700449155 -0.0847463810262123 )
( 10.028165100437176 3.785256685324932 -0.0955969204911468 )
( 9.66633677763139 4.132274897210656 -0.1029901024291251 )
( 15.489827317426476 1.224187526864214 0.0755101582418038 )
( 15.2231096139328 1.3234934113309331 0.070035695225063 )
( 14.906606917282824 1.469197949748817 0.0631805018045027 )
( 14.646879346379954 1.5734933646237357 0.0535881255103012 )
( 14.371836978700005 1.6766216144912078 0.0429633913396004 )
( 14.068844606541091 1.790899845887457 0.0304657513050276 )
( 13.767176334409722 1.890495165944818 0.0174807447358956 )
( 13.44207184768812 2.000067569245503 0.0041828415535012 )
( 13.07692911871526 2.1451108921561546 -0.010179175698959 )
( 12.685816291043324 2.304176873130295 -0.0240802304051843 )
( 12.280286572649906 2.485194745080703 -0.0370559151644018 )
( 11.900110480715258 2.6582373673179127 -0.0488293404115123 )
( 11.530513164517153 2.7963310365255967 -0.0587623599697316 )
( 11.165073460076153 2.9190965187215747 -0.0660806588281667 )
( 10.794905695436928 3.0562341080535296 -0.0714224657983736 )
( 10.42191140220331 3.218250332148898 -0.0788938334048854 )
( 10.075029285167636 3.4492425736886694 -0.0912224538033638 )
( 9.724849115060398 3.77079139963676 -0.1000180606184946 )
( 9.184591420684766 4.047463027799707 -0.1058093243585867 )
( 15.43322609541858 1.153061690524384 0.0654242097125373 )
( 15.163607969245287 1.2521058932090594 0.0608204492735008 )
( 14.844963345337518 1.3915430586789814 0.0551031286309907 )
( 14.575002909212094 1.4863679599164392 0.0463000572434155 )
( 14.292759750254811 1.5906944332154676 0.0361653614982838 )
( 13.98409866196115 1.7085610584515216 0.0243320233677721 )
( 13.66896417591607 1.8029286238034543 0.0123116425979734 )
( 13.337909935572444 1.9059823672611216 -0.0003526189324719 )
( 12.95409571920677 2.0478607846945995 -0.0143971071093296 )
( 12.545314637163576 2.2043586422621697 -0.0286520249919692 )
( 12.12491316376235 2.38186183069633 -0.0423182790254053 )
( 11.718059756806838 2.5556480465331832 -0.0542178375351603 )
( 11.336790882044095 2.699448091265402 -0.0628850039897498 )
( 10.96460237651503 2.8207802845282512 -0.0698897965676181 )
( 10.571249703102582 2.967717301826387 -0.0768162939606966 )
( 10.17931404236984 3.151458175266159 -0.0865414625037487 )
( 9.829442071874665 3.4081965879194165 -0.0968948857151289 )
( 9.386504255117746 3.731206201519341 -0.1032322765649372 )
( 8.57039172480152 3.8725509694374702 -0.1060093712773475 )
( 15.37849313920042 1.0808954106474309 0.0552104625036952 )
( 15.108200170544004 1.1821237267659737 0.0522292010501345 )
( 14.787025356307211 1.3186941396206484 0.0482007703377967 )
( 14.512594200128264 1.4090229043457063 0.0401522999679644 )
( 14.220050558010731 1.5091380775618295 0.0306112833158479 )
( 13.897730118793069 1.6151771363011451 0.0189613482005275 )
( 13.573345095197396 1.707916437645558 0.0071234083849604 )
( 13.236107218924776 1.8080919790443335 -0.0055332108523374 )
( 12.827241921592098 1.9476516670854729 -0.0197173747517107 )
( 12.40189684027147 2.108978744514593 -0.0335543281731452 )
( 11.978828020515603 2.279938936929877 -0.0468380464390773 )
( 11.560753059004972 2.453677831492774 -0.0580596181061404 )
( 11.164600780722346 2.605010081937785 -0.065890363338996 )
( 10.7660994272416 2.7268041704694146 -0.0724280885248648 )
( 10.36180536302828 2.8753793254312576 -0.0801071718668386 )
( 9.962308041148663 3.0804120257902525 -0.0913418682791402 )
( 9.558508577440875 3.3628168966970757 -0.1012219364548358 )
( 9.038942327060695 3.673522346299156 -0.1084566715155298 )
( 7.774939281020406 3.5708113465935587 -0.1020992796693151 )
( 15.32768138625077 1.016759166715766 0.0454414498368431 )
( 15.052323289046052 1.1139230077704474 0.0437711529886865 )
( 14.72991364581314 1.2462639663760573 0.0414196736030245 )
( 14.455274288048953 1.3365313548961284 0.0348283333460721 )
( 14.153072609795585 1.4297880882457548 0.0257612567998315 )
( 13.823928940229422 1.52377868738086 0.014441084734939 )
( 13.49116020099688 1.619799989661168 0.003174593600974 )
( 13.136741510478082 1.7252729172255394 -0.0095562688831227 )
( 12.708236998495574 1.8554068192412505 -0.0245580454522546 )
( 12.261845884641724 2.0147816231674107 -0.0382708712846326 )
( 11.832604272151164 2.178608692588277 -0.0503822939229512 )
( 11.414630896055677 2.338579534412065 -0.0611563897689423 )
( 11.001813197602354 2.4868147391230018 -0.0690239274324968 )
( 10.577106530699286 2.6199409596005374 -0.0758082981519754 )
( 10.15618742831711 2.7794306283206773 -0.0822832550418141 )
( 9.744427986569432 3.0021006260085192 -0.0915652803092496 )
( 9.264677719587462 3.2979518253981994 -0.1022568963494309 )
( 8.531415691403435 3.517022711755832 -0.1065658061345994 )
( 6.988762983524444 3.23142462522879 -0.0930412185478306 )
( 15.28368154494377 0.9506168794886763 0.0362268001619607 )
( 15.00417411977026 1.046670629974428 0.0359681806102561 )
( 14.675518347382203 1.1753798620101876 0.0353804199447248 )
( 14.39854488578206 1.2588267063097405 0.0302422279516949 )
( 14.090959914038626 1.3513117554223602 0.0217842871862653 )
( 13.76193116459073 1.448207963063552 0.0102762311322747 )
( 13.426240535504755 1.5426772188118498 -0.0006809722621171 )
( 13.04972089329775 1.6427983841857656 -0.0130149885774084 )
( 12.60909941168944 1.7691033185966036 -0.0282647188906882 )
( 12.15447455037014 1.9237393046844704 -0.0415589956367235 )
( 11.707546411859433 2.0816726154032787 -0.053395996736761 )
( 11.265391943983674 2.228199116183507 -0.06451694850544 )
( 10.832646444255822 2.3658382716406208 -0.0733518664248829 )
( 10.394154221424898 2.5054315456063 -0.0815899321592215 )
( 9.961793995886254 2.6839570612993406 -0.0882597604059955 )
( 9.519265523774552 2.936135666153456 -0.0966305492558664 )
( 8.97437511949307 3.2227676195184007 -0.1038849336129987 )
( 7.961511801212475 3.2838000535038603 -0.1004010388485849 )
( 6.300725840371705 2.9079330509007675 -0.0862261723512103 )
( 15.24480852011344 0.8820546994290963 0.0277216156838206 )
( 14.966256578734956 0.97821498734306 0.0293067846369099 )
( 14.629794916376598 1.105544565884968 0.0306851177440286 )
( 14.345888239796912 1.1829462662792898 0.0264826269830075 )
( 14.031486988857372 1.270108631555679 0.017921481169622 )
( 13.698709158953609 1.3665356898505914 0.0068100099701651 )
( 13.356798700706127 1.4489607818876942 -0.0042501350413842 )
( 12.968106319980048 1.5457536783821535 -0.0166356252976326 )
( 12.527311396563816 1.681745296745217 -0.0311653830626266 )
( 12.065538374544069 1.831600699481874 -0.0447572297744681 )
( 11.595845609433516 1.987883435735251 -0.0577371098789844 )
( 11.128989395682646 2.122981375583649 -0.0685805873043759 )
( 10.677493085462205 2.2508267833732503 -0.0782493690687365 )
( 10.215232184587911 2.3954314547070314 -0.0873027237364694 )
( 9.769078615772672 2.585326495871592 -0.0941655977604618 )
( 9.273265395610998 2.853734683692982 -0.1029800897833338 )
( 8.642780954373146 3.107093992924832 -0.1080872536633977 )
( 7.470351251115806 3.047342235055725 -0.0982923740634181 )
( 5.65405112803359 2.5733730475636154 -0.0801235129161819 )
( 15.211067162014052 0.8232650674777352 0.0206470693955774 )
( 14.931401527270628 0.9140860344624816 0.0239577133971847 )
( 14.589953554901593 1.0338568905537553 0.0263263117074559 )
( 14.29974378892198 1.1100016549905078 0.0222043459107029 )
( 13.979541557500443 1.1892947004155627 0.0137309206063968 )
( 13.644773571540016 1.27561514537056 0.003747431910851 )
( 13.28881662582078 1.351394921033922 -0.0073126841457689 )
( 12.89081109083049 1.4548539381366818 -0.019591220135797 )