/*--------------------------------*- C++ -*----------------------------------*\
| =========                 |                                                 |
| \\      /  F ield         | OpenFOAM: The Open Source CFD Toolbox           |
|  \\    /   O peration     | Version:  2112                                  |
|   \\  /    A nd           | Website:  www.openfoam.com                      |
|    \\/     M anipulation  |                                                 |
\*---------------------------------------------------------------------------*/
FoamFile
{
    version     2.0;
    format      ascii;
    arch        "LSB;label=32;scalar=64";
    class       volVectorField;
    location    "0.0053";
    object      U_LES;
}
// * * * * * * * * * * * * * * * * * * * * * * * * * * * * * * * * * * * * * // 
 
dimensions      [0 1 -1 0 0 0 0];
 
internalField   nonuniform List<vector> 
13597
(
( 17.450547962706278 1.658785219171364 0.0580928179353083 )
( 17.45036670250546 1.7063654871760323 0.0584512768047485 )
( 17.461017506261644 1.804802904753656 0.0556805109594924 )
( 17.48127371139597 1.9313343088477863 0.0500684273472288 )
( 17.500466623568116 2.040042159172176 0.0432265556501401 )
( 17.513504819582156 2.131870793392868 0.0361053717494555 )
( 17.529931351025226 2.2233776577571884 0.028157980456938 )
( 17.54990349723191 2.3207202315190614 0.0189567907179416 )
( 17.573282558438038 2.4187332700571327 0.008989604510647 )
( 17.59863461060439 2.5170796750363897 -0.0011229762909714 )
( 17.626052187306744 2.6248906998030983 -0.0114017709832527 )
( 17.65905699260072 2.730980134345756 -0.0215804780359945 )
( 17.69469093861675 2.8342858334272165 -0.03029933984189 )
( 17.73130432481573 2.942192699559145 -0.0379279606125342 )
( 17.768911766512794 3.0514845719899304 -0.0448824932438701 )
( 17.808600970943612 3.158147155121968 -0.0502771319103974 )
( 17.850874362758205 3.2584388098602344 -0.0543008245080364 )
( 17.894076427216106 3.356807854231574 -0.0563854916787955 )
( 17.93812646173866 3.456686127363469 -0.0571578685890057 )
( 17.318926943745115 1.6900978259147088 0.077379206664357 )
( 17.299081676978687 1.750680175646509 0.0767970192252306 )
( 17.28608377379925 1.8792549945519093 0.0691874432108246 )
( 17.277176101652028 2.0269299857283216 0.0573074958428223 )
( 17.2691059283418 2.14414613749344 0.0455224766912404 )
( 17.260855484618464 2.254897830201889 0.032836190031576 )
( 17.258087094667616 2.367132640796378 0.019238660007732 )
( 17.2565470977377 2.4847708254639493 0.0047398274885677 )
( 17.259583847193714 2.603999883543409 -0.0091580553815888 )
( 17.263622039342504 2.7227083268130303 -0.0218475601959806 )
( 17.268078483686313 2.852164038808992 -0.0346920086816006 )
( 17.273208970459386 2.9868179911456605 -0.0472175613025079 )
( 17.275754289247306 3.1199961646282155 -0.0569027971078864 )
( 17.280542063996297 3.2541023722475733 -0.0638715356505562 )
( 17.287175677899807 3.382241153632642 -0.0691464740205405 )
( 17.294746823713137 3.5017240502321783 -0.07297432810583 )
( 17.301919795055564 3.6098197156363567 -0.0752058413033002 )
( 17.30761627162665 3.717272368313305 -0.0754196298729234 )
( 17.317556606117083 3.822080846066385 -0.074653125155829 )
( 17.177817993673997 1.7119271832021528 0.0871898466192532 )
( 17.134438904680994 1.78264952947772 0.0833735432303962 )
( 17.096420493755403 1.933098541974663 0.0688443888741646 )
( 17.060382494408714 2.0980640819089267 0.0493935466331976 )
( 17.026741201039943 2.224223229597985 0.0324427720373549 )
( 17.000163885718905 2.351459773407552 0.0155622874603759 )
( 16.978278409660696 2.4824942054561383 -0.0019105683015361 )
( 16.950924282407215 2.6133673551232923 -0.0192628249641998 )
( 16.927326667241857 2.748248953015769 -0.0348774010077697 )
( 16.90588473939232 2.891605565208778 -0.0487596633976822 )
( 16.880917400477216 3.039060097761855 -0.0601958270342047 )
( 16.85515797621258 3.192282721733964 -0.0696301765988498 )
( 16.82890997057425 3.346100451810337 -0.076319149310507 )
( 16.803334597388012 3.4902035141498278 -0.0801888050384863 )
( 16.77994517574415 3.6188290454154752 -0.0820678854241057 )
( 16.759632180297604 3.731133795282224 -0.0828084620837528 )
( 16.737007646792197 3.830119040517106 -0.0827681413947854 )
( 16.71281540643079 3.927148346931951 -0.0817377942901788 )
( 16.696302514799044 4.026751620956145 -0.0806717513322396 )
( 17.02671154871295 1.7240272004422863 0.0891901313740393 )
( 16.962015185388086 1.80495288674591 0.0803203400083561 )
( 16.903344985941867 1.9690914138282205 0.0589088281478274 )
( 16.84354064778615 2.145837875908825 0.033204636161178 )
( 16.784029516824997 2.2824804966863503 0.0116296151293494 )
( 16.732675960964183 2.4180219196663653 -0.0083535753764887 )
( 16.680612662753038 2.5611015100039207 -0.0274810829095707 )
( 16.623715726187196 2.70404188466599 -0.044781385343951 )
( 16.572914188444052 2.849942130646125 -0.0590999404743513 )
( 16.52416872469405 3.003730814274481 -0.0711457662590228 )
( 16.468799689108206 3.161847976667781 -0.079903807924167 )
( 16.41716963761265 3.321340436944534 -0.0852338334739425 )
( 16.368299903047273 3.4765864535122626 -0.0882384878770605 )
( 16.31699386705099 3.621159273846029 -0.0901101554291453 )
( 16.267148271395047 3.742658539870262 -0.0910705097512963 )
( 16.221110564239538 3.845551843566151 -0.0916381950987167 )
( 16.17687784295524 3.937494059023304 -0.0921690057353122 )
( 16.129942492595262 4.029256718863522 -0.0931847476483954 )
( 16.086249008361527 4.131787011239609 -0.0945678377524014 )
( 16.876471557391117 1.7276706289359551 0.0849715322953137 )
( 16.797352668615943 1.8216234837440848 0.0703814211810971 )
( 16.716945574579867 1.9978662428507352 0.0432191508452624 )
( 16.631126781239207 2.177690596881112 0.013356055597874 )
( 16.547977340069544 2.319373734984496 -0.0107964155480947 )
( 16.469720928411366 2.459143335127069 -0.0323803281506957 )
( 16.387738818847822 2.6080007894228068 -0.0511965963735071 )
( 16.304703640000756 2.7568587127005646 -0.0666285090174697 )
( 16.226636772986488 2.90321678858741 -0.0789265697676369 )
( 16.147559088098227 3.0568929188083858 -0.0881991031391653 )
( 16.063814305002595 3.221251127473239 -0.0949917447517383 )
( 15.98367709816697 3.3849672287357517 -0.0991127476771445 )
( 15.905961308089257 3.5394391430179666 -0.101746733322229 )
( 15.827057569297008 3.681030822575032 -0.1045523326753197 )
( 15.750447275799903 3.795079128148088 -0.1072252986457276 )
( 15.677087409808282 3.896969242942169 -0.1099280280454286 )
( 15.608125371153845 3.99413244931097 -0.1127056215737395 )
( 15.540567312131436 4.091147842590111 -0.1159986801944982 )
( 15.473581969665869 4.20162386028758 -0.1195971244147611 )
( 16.733552984081033 1.7225029995477643 0.0774150360743711 )
( 16.638114891987872 1.827729692493289 0.0576613576943049 )
( 16.532332523354246 2.0166638988957235 0.0250284033627665 )
( 16.423496159812046 2.19690856611053 -0.0073422417996763 )
( 16.320494878943972 2.3388536896470664 -0.031641575830049 )
( 16.220346331271973 2.4807791322175428 -0.0527805286958314 )
( 16.116800423159756 2.6270083356800917 -0.0705992062119255 )
( 16.008943825109935 2.772982080224654 -0.0842179777369632 )
( 15.897751105390183 2.9181675696030203 -0.0953914927614533 )
( 15.78537770180752 3.077500944756165 -0.1041031194091781 )
( 15.676017570473734 3.2433905619958923 -0.1102882545670048 )
( 15.565596186136531 3.405240080978486 -0.1151991437481512 )
( 15.460621849320832 3.5607295301936537 -0.1193886172282375 )
( 15.360280270227456 3.700082409173627 -0.123335758092966 )
( 15.260939654960811 3.815129418439944 -0.1276252149773219 )
( 15.17054674920688 3.916750809227076 -0.1317289599460905 )
( 15.08278746391126 4.0156904775539495 -0.1357282093239041 )
( 14.995722652022268 4.116683420372627 -0.139483985984949 )
( 14.91013622800587 4.2330414801166825 -0.1429316175752545 )
( 16.59039321401401 1.7102811794881765 0.0683689131932838 )
( 16.47972571516408 1.826487336129639 0.0440908854664568 )
( 16.35431165969808 2.0222943364436943 0.0073845282060811 )
( 16.225275891486156 2.1986146838591174 -0.0263057521905721 )
( 16.102799637908916 2.337602574826133 -0.0510394872829309 )
( 15.978984708822871 2.475769637665872 -0.0714555639120916 )
( 15.851578027420572 2.618822599058288 -0.0881582804402493 )
( 15.720138117201248 2.763363824095618 -0.1007733001696831 )
( 15.581768759189748 2.906931914993038 -0.1110425224512089 )
( 15.448212381047265 3.0661202008896 -0.1190473078455326 )
( 15.314662799070168 3.2328957583367064 -0.1256429690052825 )
( 15.176932044753183 3.3972559678946213 -0.1316740641313281 )
( 15.049661496728383 3.551449778133123 -0.1365409846904466 )
( 14.92929650858965 3.68840431100081 -0.1406198112102342 )
( 14.810527174927048 3.808450866420284 -0.1446277125215163 )
( 14.700827962940494 3.909732568951256 -0.148021310256418 )
( 14.5960541830685 4.008584347790323 -0.1508597652917384 )
( 14.489954409786806 4.116689194189761 -0.1534835086807914 )
( 14.385470327049577 4.239328064128481 -0.1556405483582879 )
( 16.456794794992962 1.693698510264553 0.0586837292593074 )
( 16.331588632458317 1.8138193398766087 0.0299723735479235 )
( 16.187728412186054 2.0091065758818702 -0.0099212055119442 )
( 16.040359122283657 2.180310930103998 -0.0436740863148861 )
( 15.89671951029208 2.316560651334747 -0.0686547350494224 )
( 15.74989836744911 2.4533217834798453 -0.0880936643049415 )
( 15.5989058390144 2.5943239710508386 -0.1036125840862012 )
( 15.44705227162354 2.7330263901893708 -0.1155241685590667 )
( 15.285441723263853 2.8747008410899264 -0.1255030207863795 )
( 15.13004587320126 3.0364237338263065 -0.133149673285426 )
( 14.972003170360486 3.204882709263364 -0.1394235120252009 )
( 14.814322134165328 3.372937298234829 -0.1448612196959096 )
( 14.666724931626414 3.5283190963037545 -0.1488504049349791 )
( 14.522709488497688 3.660670167985956 -0.1520700915442514 )
( 14.39021637962228 3.776192554538012 -0.1546833823055047 )
( 14.262236436662956 3.8797918877247497 -0.1566339004188276 )
( 14.138114209744131 3.984572574712994 -0.1579676339989188 )
( 14.01474429002864 4.101216784730918 -0.1589290578484271 )
( 13.892956289790042 4.231549339313854 -0.1592122870972154 )
( 16.333068031250903 1.6664875840551263 0.0482761485919508 )
( 16.19156198561876 1.784044696755814 0.0156509057309905 )
( 16.028372420698833 1.9775270406498768 -0.0264069125267101 )
( 15.864876241829323 2.143281379243341 -0.0596757520226674 )
( 15.700266013203253 2.2795972049654005 -0.0837951728310398 )
( 15.535587250753991 2.4127612256170514 -0.1023762344075929 )
( 15.366621177782257 2.5470376664978858 -0.1167254387472054 )
( 15.19626000377086 2.6877784167408465 -0.1277326980733929 )
( 15.01770118434643 2.8335135799592925 -0.1370094508227611 )
( 14.832459054026772 2.9928910271427944 -0.1441734627166943 )
( 14.651205985464834 3.163017658670549 -0.1491707763571697 )
( 14.47843165431943 3.331758692607595 -0.1528097179455422 )
( 14.307210278208805 3.487647059354482 -0.155227499763779 )
( 14.143670568588924 3.6204928599354784 -0.1571024766325149 )
( 13.997914712941636 3.7338737296541935 -0.1583743302085871 )
( 13.852350156908187 3.841623855646964 -0.1589622525888617 )
( 13.70825900603958 3.950416861544741 -0.1587142042172266 )
( 13.565397574837178 4.071399328858157 -0.1575727234321094 )
( 13.421927886890028 4.2087034183658725 -0.1558257569591862 )
( 16.21332989936213 1.6353967218294674 0.0362759789256586 )
( 16.057314553798633 1.756588446218265 -0.0001708266695107 )
( 15.877408600005367 1.9454001774658247 -0.0423713060555982 )
( 15.697486072156858 2.099451549413056 -0.0740166048464893 )
( 15.516732415227516 2.233723400582087 -0.0974566455360902 )
( 15.336500474582715 2.358704594857524 -0.1147156293149736 )
( 15.147692497546029 2.4844371685569198 -0.1275378644813921 )
( 14.953094785671718 2.624804303886505 -0.1376279230289798 )
( 14.75950183815995 2.770360096673074 -0.1450415259689677 )
( 14.556614772999392 2.930565731924536 -0.1504614387684898 )
( 14.356400598573725 3.107309127961863 -0.1543307083082905 )
( 14.1652643937912 3.280377022630593 -0.1565989347361905 )
( 13.976619910778869 3.433687718440585 -0.1575507740644985 )
( 13.79965084778516 3.5680194915263668 -0.157846023365437 )
( 13.63340260658368 3.6833653755705407 -0.1573033570294005 )
( 13.46640297720657 3.79126485161944 -0.1560274991944505 )
( 13.298511344094344 3.90148806465028 -0.1541233178630479 )
( 13.133261680161144 4.024818366366841 -0.1518218356217482 )
( 12.969074821065428 4.169519021130767 -0.1499892151136283 )
( 16.103665903533557 1.60247921495516 0.0228026231646755 )
( 15.936780584937647 1.726035132763734 -0.015564735800171 )
( 15.735898222894855 1.9071909849674 -0.0567843459476239 )
( 15.5438054328369 2.0487471703133715 -0.0863001761385472 )
( 15.349665792646038 2.1750345399271414 -0.1084420355739054 )
( 15.150191311578888 2.294844755314178 -0.1241733557000843 )
( 14.944093641394508 2.4135587343520992 -0.1360390860039141 )
( 14.733977328707004 2.5464120979773286 -0.1448517073172502 )
( 14.521684701469166 2.6962818939540725 -0.1500840841604201 )
( 14.304887693277369 2.8607885472086947 -0.1534713138451215 )
( 14.086780656603358 3.0388385589255305 -0.1557268649143979 )
( 13.871383310306443 3.218506443123869 -0.1562834645567821 )
( 13.670438496773947 3.371186486942096 -0.1559528413344623 )
( 13.478970226563998 3.506213025238116 -0.1548467962699707 )
( 13.28716100202677 3.623597242396464 -0.1527018988365066 )
( 13.09472699253288 3.730535812850964 -0.1502912769519334 )
( 12.904206042456808 3.843102043642025 -0.1482951814485041 )
( 12.720789129302435 3.971011008842965 -0.1470494528123954 )
( 12.53580531379197 4.124084262895729 -0.146229776507415 )
( 15.999032111446542 1.5633535751888723 0.0090631465343104 )
( 15.819116633322349 1.6866541563530657 -0.029923137764396 )
( 15.600604437236756 1.8610128114899016 -0.0701480671718566 )
( 15.39773537538941 1.98955846027698 -0.0971361915435195 )
( 15.189824202668278 2.104028594371377 -0.1171648573790076 )
( 14.973550947928672 2.220865918633909 -0.1317763466096264 )
( 14.7580200575728 2.343393623117457 -0.1422464820307987 )
( 14.534360756920892 2.476365861827673 -0.1489605694220589 )
( 14.304329334382915 2.627802328137069 -0.1521161666943176 )
( 14.07012160221667 2.7918468137662105 -0.1538164585189492 )
( 13.834717543563556 2.9669986764802183 -0.1543328280845816 )
( 13.600106628908572 3.1431154590470305 -0.1531480158122683 )
( 13.377816338887808 3.300002769434728 -0.1516243599916626 )
( 13.163927278744795 3.4417051259274287 -0.1499470504767388 )
( 12.948281919319234 3.5592358636736647 -0.1477485695534064 )
( 12.737252049694074 3.663073570382087 -0.1458250599885463 )
( 12.531588492879186 3.777568192810735 -0.1445979815117045 )
( 12.329446348762817 3.9158278603476298 -0.1437040051333952 )
( 12.123157174732537 4.079558339976266 -0.1414559521502582 )
( 15.898452402888628 1.5141088963991616 -0.0036527687035838 )
( 15.707035355614115 1.6363813884039915 -0.0421390337445513 )
( 15.478862194753075 1.8051504598917485 -0.0813084297201379 )
( 15.261097578412311 1.92738338106982 -0.1067596160740794 )
( 15.042057078122076 2.0397213215074466 -0.124935635288804 )
( 14.81525797157179 2.154330509488517 -0.1374114511797676 )
( 14.58730918436061 2.275621326995213 -0.145474129867267 )
( 14.346676452674718 2.405447963913236 -0.1501131446243928 )
( 14.099384698508988 2.5514959643838253 -0.1522599584751021 )
( 13.8513901780779 2.718418069394616 -0.1524224587431986 )
( 13.596540396945624 2.899638018876248 -0.1515346193732848 )
( 13.344122718256608 3.072666336458772 -0.1499863787495359 )
( 13.097087920055408 3.229622614556559 -0.1474502270525391 )
( 12.854950351503946 3.370686200056792 -0.145361994596977 )
( 12.624296369385496 3.482609668682945 -0.1441084422298459 )
( 12.403319015465296 3.588189812131624 -0.142653353279817 )
( 12.180496320755234 3.70926816700065 -0.1404850248329303 )
( 11.95440570029492 3.855078847634916 -0.1375703518288091 )
( 11.719385247734492 4.033858638699704 -0.1323563324103829 )
( 15.806421840011264 1.4555744636569412 -0.0155814196373288 )
( 15.60900513253315 1.5764316564808578 -0.0526698977522118 )
( 15.368207173452832 1.7414059745289303 -0.0898577964425909 )
( 15.137118223637534 1.8599930636113124 -0.1138267964715931 )
( 14.906962173178728 1.9708221615041617 -0.1300312194881357 )
( 14.673477560800809 2.0799690877000176 -0.1400895087100942 )
( 14.43204594671808 2.197267549703179 -0.1463707801479134 )
( 14.181574898590648 2.325865439906953 -0.1494463153944896 )
( 13.91760562901978 2.4689753469668063 -0.1504738629111642 )
( 13.64910622386337 2.636862859764216 -0.1495638382778547 )
( 13.373448066426212 2.8215867058768183 -0.1477288751088513 )
( 13.097201480440086 3.0001681083794187 -0.1462178534938274 )
( 12.82954069332613 3.1593079509686413 -0.1438402057019292 )
( 12.57176729770166 3.291444209372424 -0.1418402006556014 )
( 12.326472226636572 3.3996428685844866 -0.1405318770058748 )
( 12.085202951225876 3.5133007835120598 -0.1380893718647892 )
( 11.840484650964411 3.647329593075701 -0.134307709415626 )
( 11.585392872967144 3.796424495179165 -0.128908853366675 )
( 11.312369384214412 3.981764885370731 -0.12174601432907 )
( 15.723447546028549 1.3969551741647013 -0.0260285382664796 )
( 15.515239882721652 1.51677639335072 -0.0616826619332829 )
( 15.253236036886886 1.6784200498656612 -0.0984021552367127 )
( 15.014851892790368 1.7876230527278878 -0.1191360440543479 )
( 14.779772346903306 1.8920878556421417 -0.1331904933894622 )
( 14.539925279460936 1.998385683345561 -0.1417696123811612 )
( 14.286005301035589 2.112385240987138 -0.1458663058459357 )
( 14.020562138198889 2.2421304942243308 -0.147466115340429 )
( 13.744669585619512 2.3845823025914616 -0.147271544298667 )
( 13.458227795196082 2.548438841859651 -0.1457290767400681 )
( 13.158713630525272 2.734938370639806 -0.1437636346336164 )
( 12.8575014989461 2.9148229377629686 -0.1418586861764822 )
( 12.568407734896857 3.076407079257474 -0.1397668544441497 )
( 12.30038293353788 3.205678847208019 -0.1379789653102461 )
( 12.041989805797666 3.314789841745285 -0.1354798871953222 )
( 11.778865538622016 3.434115605369941 -0.1317852971993164 )
( 11.5037511010867 3.5746849562791083 -0.1267158200116687 )
( 11.212991969839212 3.7365994558672337 -0.119862174239322 )
( 10.915395222818873 3.941959942865876 -0.1129932764890364 )
( 15.64585589801182 1.3403368449348574 -0.0349569852310985 )
( 15.427113273368192 1.4570775950452888 -0.0687953755763691 )
( 15.15143851563805 1.6119602771154815 -0.1038703259484396 )
( 14.905919590992136 1.7108436516074963 -0.1224222374678655 )
( 14.665190763804553 1.8060087687019792 -0.1343684233254429 )
( 14.416138321151076 1.916375320263008 -0.1416722553972186 )
( 14.15154780632692 2.025527738248646 -0.1443509293034315 )
( 13.868903754234143 2.147940945034655 -0.1446255325875733 )
( 13.57731982296738 2.294982827061862 -0.1436798190876756 )
( 13.274030279178389 2.4563441520748115 -0.141845235107883 )
( 12.947415568857544 2.647007451154968 -0.1401081890180633 )
( 12.61999380328731 2.831957907847185 -0.1377326785235883 )
( 12.32049872941676 2.986561215671661 -0.1352012028564475 )
( 12.045578534355707 3.1131043719018394 -0.1326735409609639 )
( 11.770786487574195 3.2278843501601924 -0.1291440978314138 )
( 11.482236148365825 3.352508316388539 -0.1246760253224063 )
( 11.17266463978155 3.4976786841809364 -0.117762433410657 )
( 10.84898552144053 3.678227130530942 -0.1119700170612671 )
( 10.552105716631711 3.925919356795891 -0.1083783927272914 )
( 15.574768755556237 1.2834380364093765 -0.0421997166503031 )
( 15.343010619866035 1.3931069041427149 -0.0754424528366627 )
( 15.05957071071088 1.543651267346192 -0.1074949383816616 )
( 14.812594276909945 1.6374872884462657 -0.1243399510089298 )
( 14.563363923502516 1.7277305522334607 -0.1340399040781215 )
( 14.299236946760994 1.833830119286749 -0.1394272682081028 )
( 14.022162984440596 1.935631198848614 -0.1415931870575312 )
( 13.733561125832814 2.056229202540828 -0.1414658453290495 )
( 13.424541118076334 2.2055785924468605 -0.1400722737278583 )
( 13.097442740961196 2.361651904395211 -0.1382877970920262 )
( 12.75854551936485 2.5477610897578327 -0.136260490139918 )
( 12.412559639552615 2.74547816130804 -0.1333881152410061 )
( 12.099746796962435 2.8985325182536084 -0.1301629534018171 )
( 11.808224001781774 3.01877504892748 -0.1265313694084411 )
( 11.506742774506096 3.1389955134206424 -0.1229861883297135 )
( 11.182989574981637 3.2654244609688985 -0.11797942731241 )
( 10.844779210953758 3.4224976883475184 -0.1118885042008087 )
( 10.514619344542028 3.631338498661094 -0.1090986472127997 )
( 10.238134726359435 3.9299551052040456 -0.1068010421550247 )
( 15.505770564625896 1.2251473170247251 -0.0487135641160472 )
( 15.265267838218213 1.327589604362894 -0.0806129489284574 )
( 14.9747609507583 1.4700646429437536 -0.1101419282813152 )
( 14.727332237559157 1.55929544322668 -0.1248423189113094 )
( 14.470877212014113 1.6510226520742737 -0.1329924167250471 )
( 14.193365739857049 1.751961755835396 -0.1369355275827272 )
( 13.907485927475571 1.8433249285389517 -0.1382142062143868 )
( 13.607149812934452 1.9660553000557293 -0.1376693136041811 )
( 13.279318523972506 2.1177569339404734 -0.1363434112273509 )
( 12.933558311894018 2.275867238407885 -0.1339617990012059 )
( 12.575101318317031 2.452979263873807 -0.1307419229630893 )
( 12.214810528317887 2.6374334520662845 -0.1274603100516586 )
( 11.888074545191454 2.794069572161121 -0.1243077594563424 )
( 11.571437148359175 2.921940873399277 -0.1204596203423375 )
( 11.24106715557131 3.037606495756734 -0.1167863731436053 )
( 10.891900458670507 3.1683111576884446 -0.1125365696401421 )
( 10.535070157259485 3.3428727051096763 -0.1088694002912323 )
( 10.21839142464774 3.596036512897101 -0.1082038540086209 )
( 9.93845300599452 3.9502630271897834 -0.1065209876049044 )
( 15.443447451741072 1.163791013128723 -0.0542341540491935 )
( 15.19706666690476 1.2589849368501165 -0.0839823500201842 )
( 14.896923213684468 1.3896859511876871 -0.111325474168707 )
( 14.6476952506971 1.478149338642205 -0.124192798589725 )
( 14.383083759552614 1.5667030134896929 -0.1311409941074475 )
( 14.092770098900695 1.6652550801092487 -0.1343933405154727 )
( 13.806482240444442 1.757704380285306 -0.1347384622803223 )
( 13.492185000685444 1.871601857773382 -0.1331506932306477 )
( 13.142628397062484 2.0213390599727603 -0.1316991058776646 )
( 12.77626898046258 2.1852541988208096 -0.1290402103242286 )
( 12.39276121084943 2.362708981443919 -0.1254348317849779 )
( 12.026158085035084 2.5343715147659185 -0.1224027067117306 )
( 11.679552767359224 2.683311954935625 -0.1196383856194013 )
( 11.333828912487276 2.8153964657093824 -0.1154065753518684 )
( 10.98550613598375 2.936505777246138 -0.1109017845030614 )
( 10.62082377678269 3.082099774800745 -0.107291113526094 )
( 10.255499573333172 3.282665875762407 -0.1060216313515795 )
( 9.941908167006536 3.5753731436837826 -0.1069418948365659 )
( 9.569697908203423 3.933746352794444 -0.1072376848031309 )
( 15.390662951206416 1.1008181990963326 -0.057524886871013 )
( 15.132867689421907 1.1848927539128058 -0.0857342108228341 )
( 14.82538642756595 1.3080853732399007 -0.1112934681595852 )
( 14.571828888594103 1.395166165190404 -0.122705247190663 )
( 14.30034234754472 1.482424310664139 -0.1285908469665818 )
( 14.000556597222433 1.5828543222731233 -0.1308756316460089 )
( 13.703019294695649 1.67366239061662 -0.1303607117916941 )
( 13.38202478993696 1.7784839068607627 -0.1284669086464773 )
( 13.020709940172967 1.92034493006406 -0.1266118952755753 )
( 12.632736827776972 2.0788670194010623 -0.1238962326481069 )
( 12.230017751170797 2.261959678239226 -0.1212267946912022 )
( 11.850073480034055 2.4376822680409376 -0.1190419947240458 )
( 11.478814851929664 2.5785629621661807 -0.1160730964228646 )
( 11.111504413294186 2.7038669572096343 -0.1116914312388999 )
( 10.73831716245327 2.8433505923678606 -0.1063494635178934 )
( 10.359553049980915 3.005871388559659 -0.1027857648921476 )
( 9.999548884545248 3.2334097348087374 -0.1040771358815041 )
( 9.632497482501238 3.5546508250861386 -0.1051214927111333 )
( 9.08731164542224 3.850948650791472 -0.106251588649316 )
( 15.338764221294362 1.033081114800381 -0.0599972409106321 )
( 15.076539989741654 1.1137957424415292 -0.086719134027255 )
( 14.766836201606525 1.229370840655182 -0.1099885718998909 )
( 14.50363441650096 1.3061409194002949 -0.11980908790562 )
( 14.225569107096453 1.3944817725396796 -0.1248905316524462 )
( 13.920080066834249 1.499170676961142 -0.1263666312401553 )
( 13.608760046137938 1.5839486946578405 -0.1253839334272139 )
( 13.281723155150658 1.6817375169460154 -0.1238892800404269 )
( 12.901616547849052 1.8214389150607215 -0.1216064130069598 )
( 12.496318473456856 1.9780151448821557 -0.1185114083627125 )
( 12.078425329879828 2.156527907541559 -0.1169178546125865 )
( 11.670849320566692 2.332295030280856 -0.1150102102114781 )
( 11.286862872736313 2.478633270682564 -0.1115680697693366 )
( 10.912671555016546 2.6027198107233764 -0.1079723269516937 )
( 10.514785722457937 2.751083704597848 -0.1042779902975224 )
( 10.11392261393695 2.9320000474456496 -0.1031436376987479 )
( 9.749652924394526 3.1829359225435905 -0.1036822429553198 )
( 9.291187943247492 3.50918533316936 -0.1041208894274852 )
( 8.476621074899198 3.6812324767877183 -0.1040268242945771 )
( 15.289047347462006 0.9632819133691508 -0.0626660300928679 )
( 15.026354150748556 1.04440687256459 -0.0867352479434845 )
( 14.713277671199258 1.1557708886490077 -0.1079365225204934 )
( 14.445206294058456 1.227583729248753 -0.1168620116536187 )
( 14.15754289866849 1.311332518395372 -0.1209724461749518 )
( 13.838574844662142 1.404148569266728 -0.1216656682692134 )
( 13.517270014825202 1.4872780885541443 -0.1203091802414924 )
( 13.18386893759747 1.5819554936914528 -0.118811119404182 )
( 12.778572469346908 1.7193684354236851 -0.1165107770176285 )
( 12.356243851407337 1.881022943669786 -0.1139503635713703 )
( 11.93506160811905 2.052787221247636 -0.1130878279201866 )
( 11.515680331808229 2.2283421505595875 -0.1107868840120985 )
( 11.11637895316992 2.3822395016933418 -0.1073177179307415 )
( 10.715753445622816 2.505985800435548 -0.1038213270072329 )
( 10.306242009366391 2.6537500642090475 -0.1015546885838053 )
( 9.89484064158423 2.8524164569890766 -0.102471783528028 )
( 9.475471892608889 3.1279771162181715 -0.1039274077205699 )
( 8.943754303828333 3.4455154983727296 -0.1065478035905379 )
( 7.688261962124127 3.3865912689397115 -0.0992218964810825 )
( 15.243320241648108 0.9003841221900708 -0.0644916247354024 )
( 14.976420666731295 0.9760138243422342 -0.0861666464217271 )
( 14.660914946582878 1.082182871127201 -0.1056954554821931 )
( 14.392304166706236 1.1534175668698854 -0.1137999083839601 )
( 14.094655384059628 1.229757998558422 -0.1167078758985222 )
( 13.769104705176114 1.3111813653783295 -0.1171683550217044 )
( 13.439101469070328 1.398366301062801 -0.1165404314646303 )
( 13.087912697811085 1.4983315740363583 -0.1147099367822532 )
( 12.663480804277622 1.6258532510080252 -0.1121304175452309 )
( 12.21969824142489 1.7853416782533378 -0.1100852281758373 )
( 11.79170541810248 1.9502231726140256 -0.1091382209454176 )
( 11.372345903483536 2.111420171469018 -0.1071832777640029 )
( 10.956647051898516 2.2619629629223907 -0.1041974594578755 )
( 10.528618145580104 2.3954947372387045 -0.1006110917643474 )
( 10.10045227174948 2.550549229719828 -0.0972345975517422 )
( 9.675121021258436 2.764603358466173 -0.0976490972675102 )
( 9.179648877475376 3.05402925190071 -0.1013507788179662 )
( 8.438589095462516 3.287212838691396 -0.1024344273169948 )
( 6.908349313370425 3.0535524884090184 -0.0900175503747617 )
( 15.204636760530216 0.836207572932707 -0.0647063482290622 )
( 14.933227568840152 0.908727066185934 -0.0851619695372783 )
( 14.610585452850136 1.0095440177272608 -0.1035382279896609 )
( 14.33904330516739 1.073779013103891 -0.1102911218570779 )
( 14.0358188469388 1.1495381178058934 -0.1119127333893821 )
( 13.71036904251507 1.234038125047275 -0.1125874084224991 )
( 13.376851252742052 1.3198052796675026 -0.1131247637342485 )
( 13.003750232620934 1.4147292524615456 -0.1107911863291007 )
( 12.567941400415338 1.5381143328670213 -0.1079895898367708 )
( 12.115428746275796 1.6927734471185298 -0.1064473266574391 )
( 11.669049811363063 1.852310248121925 -0.1057120447567857 )
( 11.225826153317598 1.9993467119623571 -0.1041993391679245 )
( 10.790536692333804 2.1382216016336995 -0.1020292572283221 )
( 10.346929226197682 2.2761477302416013 -0.0999124867324403 )
( 9.90471628387168 2.4465358796672745 -0.0971456103941212 )
( 9.44702809681929 2.688441131320848 -0.0982454542740935 )
( 8.888034152654422 2.9703152028224067 -0.0997355728591555 )
( 7.873323711226114 3.0541294494104467 -0.0947003982481055 )
( 6.228144148232933 2.734548499134654 -0.0826045343544604 )
( 15.171857255516176 0.7690724526719281 -0.0646011070102141 )
( 14.900445969335596 0.8408975272048586 -0.0833664527007821 )
( 14.569163161981862 0.938587738210698 -0.1006372579018585 )
( 14.289816406861991 0.9962188685673796 -0.1063623212519237 )
( 13.97995659551393 1.0672299729371268 -0.1074923237556562 )
( 13.650515074512237 1.1506845271442296 -0.107873553283085 )
( 13.311003896933515 1.2244276244281007 -0.1078044748451799 )
( 12.92601754764924 1.3165994309508362 -0.1056990179183251 )
( 12.48922181843233 1.4494907021499517 -0.1037327754988278 )
( 12.029092801118155 1.5990787573377605 -0.1032426723931105 )
( 11.559387564060922 1.756717899743053 -0.1035238109814683 )
( 11.091981398385812 1.8923946558585836 -0.1017995024501005 )
( 10.637803465713368 2.020957660721572 -0.1008077465356988 )
( 10.16857823213606 2.161784378152843 -0.1000813102324531 )
( 9.711213167302745 2.3413207836814363 -0.0988802603195676 )
( 9.199936757592296 2.5977711500712197 -0.1012422446381875 )
( 8.557668418409515 2.849599201610388 -0.1010909341719012 )
( 7.38880612037577 2.820117199045794 -0.0907990408871376 )
( 5.591786831779254 2.406972400163648 -0.0754356510114239 )
( 15.142860686690774 0.7106459713579608 -0.0648963233602231 )
( 14.869884377034888 0.7762855879136414 -0.0814797246445177 )