/*--------------------------------*- C++ -*----------------------------------*\
| =========                 |                                                 |
| \\      /  F ield         | OpenFOAM: The Open Source CFD Toolbox           |
|  \\    /   O peration     | Version:  2112                                  |
|   \\  /    A nd           | Website:  www.openfoam.com                      |
|    \\/     M anipulation  |                                                 |
\*---------------------------------------------------------------------------*/
FoamFile
{
    version     2.0;
    format      ascii;
    arch        "LSB;label=32;scalar=64";
    class       volSymmTensorField;
    location    "0.0017";
    object      tauij_LES;
}
// * * * * * * * * * * * * * * * * * * * * * * * * * * * * * * * * * * * * * // 
 
dimensions      [0 2 -2 0 0 0 0];
 
internalField   nonuniform List<symmTensor> 
13597
(
( 0.1266552676671707 -0.0061895520747596 -0.0151119001046489 0.0774237618615887 0.0092503687379136 0.053275521848582 )
( 0.1312470899315433 -0.00903441602119 -0.0153005179824821 0.0764003791717743 0.00811309732727 0.0510168611569508 )
( 0.1395012987266395 -0.016851293521673 -0.015454589862936 0.0742494180409665 0.0065876456471556 0.0496674347534773 )
( 0.1506177764680403 -0.0282208225764988 -0.0155404608887626 0.0736515527403476 0.0068949362560718 0.0545422198719312 )
( 0.1605911473955494 -0.0377659689853332 -0.0150690038400577 0.0738467855035959 0.0082486170587517 0.0636496150897053 )
( 0.1679825800975791 -0.0449056362203496 -0.013608070399283 0.0730537561698474 0.0097644663399488 0.0734492959808035 )
( 0.1750528486306202 -0.0520555372346452 -0.0117316771074884 0.0727258144389706 0.0116192190833575 0.0848394135225501 )
( 0.1825455523961211 -0.0589852482086476 -0.0090407607009139 0.0730927885856803 0.0139029961686603 0.0987641082864574 )
( 0.1887766036040117 -0.0651643371159927 -0.0060111600764377 0.0749968380895899 0.0160093610732769 0.1137005798135121 )
( 0.1939610907132549 -0.0704754948649894 -0.0025236314242662 0.0773397840778552 0.0175221770627844 0.1288375490596879 )
( 0.1989806037104073 -0.0746401849714503 0.0019435325226674 0.0806031440759433 0.0194366455013761 0.1458083462570415 )
( 0.2038272930669337 -0.0781085728268719 0.0058430458688875 0.0857265254931681 0.0211402463927068 0.1631938132929919 )
( 0.2082557843577175 -0.0803858859863481 0.0097988679676799 0.0910205153252263 0.0220753912052881 0.1789970649112482 )
( 0.2118065917799877 -0.0812591701168706 0.0141813845485284 0.096944229670366 0.0231821848883908 0.1936018751793638 )
( 0.2148353478907635 -0.0814351932799704 0.0180344726429649 0.1036248868272162 0.0250035364983379 0.2063026107031126 )
( 0.218024561498617 -0.080617374727676 0.021973142219655 0.1097165402228823 0.0265666939652631 0.2164914070365174 )
( 0.2204064625022991 -0.0781836447879178 0.0259649750626754 0.113706516454698 0.0274882528516643 0.2243128929461133 )
( 0.2215921394414182 -0.0745867638885239 0.0289882870359664 0.1163789264555558 0.0285082502851673 0.2288057479964092 )
( 0.2230825210002581 -0.071030220681436 0.0313319635282174 0.1189624271085916 0.030011301577246 0.2308786345518517 )
( 0.1378685097637437 0.0070863444454665 -0.0119229368176321 0.0772812619809085 0.0112427464129493 0.0516060700261509 )
( 0.1428137620789283 0.005261833297021 -0.0094626495215718 0.074639536610324 0.0102596420452343 0.0502851845977573 )
( 0.1489962120347948 -0.0018464968823405 -0.005446201165175 0.0687420267346552 0.0096742739435319 0.0529090131876293 )
( 0.1569363117108385 -0.0108585776338211 -0.0004056428341064 0.0652739805953109 0.0115501904106268 0.0652005159926342 )
( 0.1630429366160354 -0.0174047339363523 0.0048689852249507 0.0626829813413502 0.014183530017836 0.0796707151117625 )
( 0.1672569574067649 -0.0226689043258164 0.0108883869759787 0.0600771896151539 0.0171728241659629 0.0955521335407077 )
( 0.1712912430255367 -0.0279259696150793 0.0164947977360479 0.0590739909604976 0.0201376548347983 0.1130206808472867 )
( 0.1758173205640674 -0.0326317402196174 0.0225426295212332 0.0599011499006938 0.0233732350385754 0.1322163177094703 )
( 0.1801480073573373 -0.0363107609227382 0.0285157777893638 0.0626982261819424 0.0262649140590955 0.1514684250041919 )
( 0.1832601465939414 -0.0387769288933839 0.0339324212199877 0.0663011757762338 0.0279761344781284 0.1692843444046042 )
( 0.1866821077257713 -0.0401833456294325 0.0392238861244879 0.0714385316553377 0.0298290612982774 0.1866884737114263 )
( 0.1900245218411055 -0.04060157475715 0.0436362732273285 0.077826815844445 0.0315248202337697 0.2025652870522071 )
( 0.1929864848364895 -0.0394480595550149 0.0468154993451539 0.0839166891856193 0.0324970030161731 0.2140889973668394 )
( 0.1964309084856478 -0.0374398246118229 0.0493340101120361 0.0901962661022355 0.0333697031673123 0.2219036802427286 )
( 0.1998480408622111 -0.0352645742436861 0.0507715713569858 0.0960919726443785 0.0346807816911897 0.2255164386195865 )
( 0.2033599527337616 -0.0331055741112178 0.0506846484620771 0.1006678161848247 0.0354500944929226 0.2251365647126091 )
( 0.2063060485667087 -0.0306271849766893 0.049766269684608 0.1032376510508327 0.0351873959118167 0.2219651282969141 )
( 0.2089813552011838 -0.0276058876546343 0.0479221784033097 0.1042702624369478 0.0347160348762211 0.2157535835704349 )
( 0.2124542884665773 -0.0251671290436543 0.0451408071663271 0.1051452524189705 0.0345242337467225 0.2080442651464812 )
( 0.1462235676909417 0.0156884113035666 -0.0019999442266329 0.0788093798849737 0.0121406426259462 0.0514208987630231 )
( 0.1475306216864697 0.0140131819471889 0.0036829117192711 0.0748557117888536 0.0117017110648753 0.0530017204270618 )
( 0.1469197647797338 0.0079625710806628 0.0118730498699759 0.0657258295900726 0.0125664797895296 0.062800310482425 )
( 0.1461581206665679 0.0017193722801367 0.021220479033024 0.0590331789578347 0.0156869183132101 0.0835645337572119 )
( 0.1450280082745935 -0.0018984570521995 0.0296365129912595 0.0545641639163934 0.0191469414166979 0.1039014695169974 )
( 0.1440275105580593 -0.0045450148396756 0.0375863527910079 0.0517676009042385 0.0226918060409117 0.1249768451613436 )
( 0.143118125742976 -0.0067524806010068 0.0439974361760003 0.0506006589274417 0.0252057345457844 0.145599534213521 )
( 0.1420303788889543 -0.0074081971765256 0.0494353996520368 0.0514892890048117 0.0270232148098285 0.1646510142367124 )
( 0.1419840490486731 -0.0067761822392335 0.0536640913907511 0.0544136865064345 0.0286062254018789 0.181372648198078 )
( 0.1428314199514572 -0.0056431049233658 0.0562952743304037 0.0585697118969215 0.028858676311902 0.1957531618602822 )
( 0.1441673646584942 -0.0033327100028632 0.0571222739199346 0.0637522748250812 0.0286047140046629 0.2056058345038056 )
( 0.1465566074331828 -0.0003513548198152 0.0561465291312531 0.0691164037687604 0.0283368083096455 0.2107287506732546 )
( 0.1499036419428212 0.0031893863608203 0.0530982012633395 0.0739743199800509 0.0274103330222232 0.2107746809847626 )
( 0.1533737275762486 0.0065726737728038 0.0484937391397304 0.0780967463002881 0.0260398606214206 0.2061618006104598 )
( 0.1565444856131477 0.0091623792411443 0.0431086799332433 0.0810199219200052 0.0247181968207543 0.1986849463316266 )
( 0.1594661709464248 0.0112156980960205 0.0371611031647518 0.0827117563399 0.0234698530779675 0.1894417633472658 )
( 0.1615185133058825 0.013128117919593 0.0310088017831103 0.0831708108363581 0.0217998358252053 0.1790796084181388 )
( 0.1629191784092444 0.0150322369549901 0.0242794424052071 0.0827664034021802 0.0198264544605192 0.1676491071080709 )
( 0.1652481179096152 0.0160377158506253 0.0172243570895759 0.082143499187398 0.0179683974724102 0.1560704850976421 )
( 0.1433092606720112 0.0186928591960449 0.0106317459749084 0.0820717883441916 0.0117730114280536 0.0551690942729058 )
( 0.1388607448509453 0.0165876906430103 0.0184327855280454 0.0771837193746455 0.0121220704548774 0.0620740545493092 )
( 0.1302086869044335 0.0120101612688099 0.0282766909250641 0.0652761601550938 0.0147139858936348 0.0794343703279808 )
( 0.1216285513054606 0.0086856902392028 0.0386504221177302 0.0559926447156785 0.0185673477436758 0.1062523033926292 )
( 0.1150433636574452 0.0079496251519529 0.0464976768212426 0.0507286452065604 0.0213827734194536 0.1298615852685729 )
( 0.11033227969608 0.0087519662430116 0.052157904730789 0.0478872750752403 0.0233280949150567 0.1505966456724936 )
( 0.1068422892233747 0.0109742072727411 0.055593584033601 0.0470684951243488 0.0237814578891281 0.1680588508488784 )
( 0.1044338401373647 0.0142509384000236 0.056569998406199 0.0482510344214602 0.0228181931919489 0.1815247884061233 )
( 0.1040903743553998 0.0181637701196589 0.0553530216156071 0.0511281139568467 0.0214394543263476 0.1903018150823876 )
( 0.1049751323002739 0.0221045936635504 0.052325786700369 0.0548075201798957 0.0193268113790863 0.1943411955007624 )
( 0.1062864903343233 0.0262637890883622 0.0465884577631307 0.0585314997546695 0.0167606775494516 0.1914678721625443 )
( 0.1094929251455363 0.029875990116804 0.0392952776377528 0.0620354943314006 0.0143030804412354 0.184261300503897 )
( 0.1132408763813357 0.0326514899079239 0.0310117352348883 0.064562938736892 0.0112818946061119 0.1742609502271931 )
( 0.1163295073347903 0.0347468227264818 0.0221290481914456 0.0662046443606727 0.0088715362083602 0.1622781692223226 )
( 0.1185583120508174 0.0360050337405943 0.0140402149618072 0.0669716164626122 0.007007179253018 0.1510881932477093 )
( 0.1199781635606336 0.0367777616925747 0.0071337513321078 0.0670175330444566 0.0050109366171312 0.1414660841564435 )
( 0.1208378936834386 0.037196474688143 0.0008468694076774 0.0665684804634848 0.0032590332818517 0.1330161566133064 )
( 0.121064280474614 0.0374265311971416 -0.0054318106135447 0.0658446264192584 0.0014550470599715 0.1254909272416246 )
( 0.1216605387029944 0.0372094491459352 -0.0116955584027578 0.0650761104007363 -0.0005669224110648 0.1192200928035288 )
( 0.1322755555339198 0.0167013603097728 0.0218526255863633 0.0872872902392902 0.0113621119113634 0.0643257289482838 )
( 0.1214861155740507 0.0137576570737264 0.0290669408660007 0.0802193027091344 0.0126921013640877 0.0765580517961874 )
( 0.10842161492959 0.0117209775916139 0.0380081322534614 0.0664702952611913 0.0163935242016527 0.099558032489892 )
( 0.0976916087838345 0.0117885038803106 0.0463093119677694 0.0563450023579937 0.0194730379498595 0.1282206379759251 )
( 0.0909754142577255 0.0141804310317663 0.0504629801858512 0.0513950390133573 0.0201407495068399 0.149313694246105 )
( 0.0868503501183114 0.0180320219173037 0.0517407464175866 0.0489998884388189 0.0193407701484149 0.1646025949538545 )
( 0.0843349675220024 0.023098980542032 0.0502318714116886 0.0487356266225292 0.0170037466165987 0.1745190949476337 )
( 0.0836371740332987 0.0289846405385509 0.0460651945287961 0.0503530396889962 0.0136231570108426 0.1784035492125032 )
( 0.0840275477404225 0.0342403336341761 0.0401636890915926 0.0524913174825846 0.0097218451952877 0.1763552028414432 )
( 0.0849156018847784 0.0386448395287439 0.0330564491174687 0.0545336638515779 0.0061681313421503 0.1688613356850142 )
( 0.0866005780880591 0.042404648604893 0.0246421431753695 0.0564055862909561 0.0025854402028308 0.15813555312726 )
( 0.0893665776489021 0.0451808792135413 0.0160294281340714 0.0578988910750866 -0.0007322565996329 0.1471621234570899 )
( 0.0917773979020527 0.0466079287976273 0.0075712478750761 0.0587014634261709 -0.0033792905926057 0.1368733230485752 )
( 0.0934168630260988 0.0472715154256805 -0.0001723163010843 0.0592763873350314 -0.0053111871230342 0.1285411230522116 )
( 0.094142708781624 0.0474560271207565 -0.0064671162117903 0.0593152935938746 -0.007058000655254 0.1232585237219062 )
( 0.0944071780312346 0.0472645284860299 -0.0116440322917838 0.0590043638638807 -0.0088899402635537 0.1206728818736689 )
( 0.0944384218159916 0.0466601748715646 -0.0162147998860472 0.0586981324374567 -0.0104112691164585 0.1202809472462717 )
( 0.0942858274711378 0.0457448455505423 -0.0204030738698121 0.0582940794762966 -0.0121047711154586 0.1219770046750053 )
( 0.0941864714979853 0.0444342909556006 -0.0246069787673138 0.0577789559550797 -0.014289126827398 0.1258870362832913 )
( 0.1173897437539979 0.0106407449080155 0.0283404133289853 0.0930195536781635 0.0109778540728437 0.0774399991827395 )
( 0.1038760677796811 0.0081540861046581 0.0334036118484294 0.084226056097699 0.0130405578789701 0.0928730112841173 )
( 0.0911813844338039 0.0096788565904084 0.0402696220571393 0.0697317194316801 0.0164946486545838 0.1183904990065103 )
( 0.0836454671377412 0.0132801128682209 0.0451607162038046 0.0601262321392433 0.0174900495195977 0.1440154602767578 )
( 0.0803299366682114 0.0181689854149854 0.0450817353868402 0.055796899271977 0.0157499037104712 0.1583904108932425 )
( 0.0790844950317116 0.0240910813902601 0.0425809129365078 0.0541876849112553 0.0125936494250212 0.1656300907618646 )
( 0.078274812553983 0.0303131540294341 0.0377281843926528 0.0541102799813097 0.0082528821190817 0.1663787033514876 )
( 0.0786903887021511 0.0365791064566455 0.0307677363798995 0.0553644056746917 0.0036009866017806 0.1612834467333988 )
( 0.0788897947088595 0.0413474912488332 0.0229453314957861 0.0567453736236151 -0.0011277576814983 0.1521658526603096 )
( 0.0788335069008809 0.0451385665941583 0.0150844695729252 0.0578935779632262 -0.005190922317536 0.141307216037386 )
( 0.0795151674747599 0.0480481846623013 0.0077430543770743 0.0587451380469238 -0.0085006623188109 0.1319357268608549 )
( 0.0799174023353939 0.0492912837761174 0.0008960221098261 0.0589675367833988 -0.0110224918020943 0.1246987832749398 )
( 0.0806816078092835 0.0496156916622928 -0.0051497707373821 0.0590973441687588 -0.0127615790964714 0.1216116751358028 )
( 0.0815445147012406 0.0493604224258478 -0.010135360468174 0.0593100939045961 -0.0141045186821826 0.1222819199768828 )
( 0.0814286316825408 0.0486097414676186 -0.013992663776595 0.0593779532925294 -0.0157711505055292 0.125907245270663 )
( 0.0811843432075923 0.0476977964906261 -0.0170140728402546 0.05935687787084 -0.0174091907796239 0.1319853917874667 )
( 0.0810045418629419 0.0466612888752708 -0.0197171796313581 0.0594768515142963 -0.0191252463525073 0.1398984585704361 )
( 0.0808368930847119 0.0454787306542275 -0.0222244437064833 0.0594722836863237 -0.0212324671560683 0.1492824354823278 )
( 0.0808319279024348 0.0441339720808087 -0.0250719117018821 0.0593100563686913 -0.0238145856607744 0.1607767555732555 )
( 0.1037870012494699 0.0023568717165179 0.0301107596795753 0.0998160243953137 0.0103026999782274 0.0923921468671656 )
( 0.0931927011629031 0.0016284047086642 0.033304967244554 0.0901572602796619 0.012370776688788 0.1095079093117742 )
( 0.0848593169880327 0.0066300813858612 0.0380118621541978 0.0752280933874817 0.0146648148306519 0.1328723657559449 )
( 0.0815350858163408 0.0132675290952141 0.0393200545974727 0.0662938540383437 0.0134843225158153 0.1506533628236178 )
( 0.0811762404057148 0.0197648681079682 0.0361359246908438 0.0629017604483608 0.0099692983074079 0.1571687533746835 )
( 0.0816553912335986 0.0262918723515665 0.0309069333789967 0.0618901260484641 0.0049140650187595 0.1566766363449786 )
( 0.0814734063857237 0.0325761047316727 0.0243773991905381 0.0619076537201077 -0.0006220302780772 0.1507894826899846 )
( 0.0806987431025483 0.03795891563154 0.0175528275159281 0.0627741172879835 -0.0054448833776115 0.141591960806963 )
( 0.0793039859710146 0.041672693443711 0.0108211248633758 0.0640648660162955 -0.009762575961376 0.1319391567592813 )
( 0.0777700765133667 0.0446756200662687 0.004595930671394 0.0646458025476452 -0.0128503902364376 0.1243598398481633 )
( 0.0765664523099424 0.0467380831731716 -0.0005847254487097 0.0648030951343138 -0.0148177826225086 0.1201798878904161 )
( 0.0751018605535853 0.0472074746143203 -0.0049245106594341 0.0647203586166059 -0.0164777331850096 0.1207541653133713 )
( 0.0746496127755926 0.0471061898324138 -0.0083847405181683 0.0647785956013828 -0.0179279411843797 0.12651269612193 )
( 0.0747273754285862 0.0465863410323125 -0.0111948188681342 0.0650827493335296 -0.0194462289617676 0.1353578286157779 )
( 0.0745444047633546 0.045825115689551 -0.0135791039762179 0.0654307424705536 -0.0214019093916986 0.1465014893502739 )
( 0.0745896398274055 0.0451433318392078 -0.0152877809792299 0.0658351997852449 -0.0235078556768473 0.1587845384158732 )
( 0.0747996417810562 0.0445654660696021 -0.0168237958370363 0.0661734804902558 -0.0258428213715308 0.1715295281823218 )
( 0.075171626631351 0.0441399931126115 -0.0185584831712201 0.0664332450821168 -0.0285565479827265 0.1853971082227264 )
( 0.0759896814773375 0.0439121418483676 -0.0207248078809528 0.066483859938997 -0.0316520837027448 0.2002976814168122 )
( 0.0980495999497297 -0.0060557782312327 0.0292420257854481 0.1077143327129263 0.009241151334379 0.1061656204812526 )
( 0.0926168599109027 -0.0049347254336637 0.0312598111170738 0.0974850050194768 0.0108981100073752 0.1226456832202893 )
( 0.0888068957736265 0.0031578993315824 0.0337696492638766 0.0823509767158144 0.0115991103638732 0.1407212970064844 )
( 0.0884585662055108 0.0117115441545183 0.032417264749152 0.0743607767584508 0.008637850285202 0.1504871414427648 )
( 0.0887506583611614 0.018709925569795 0.0272886137678007 0.0719626566696327 0.0036973021664537 0.1501486981407666 )
( 0.0880406484458378 0.0252066337682541 0.0210686241749727 0.0715890630691692 -0.0022068227040398 0.1446894935714454 )
( 0.0857606324642616 0.0306759081882363 0.0147718971842944 0.0718388213408079 -0.0080732656227118 0.1362806718961974 )
( 0.0827673923600966 0.0348348209681408 0.0092285995271713 0.072626625271397 -0.0119912467094757 0.1271224559327233 )
( 0.0795918511450541 0.0379857679237845 0.004427476715342 0.0739130959264247 -0.0150931753884903 0.1201030411757542 )
( 0.0761219252291565 0.04060086310463 0.0002867320515697 0.0741543643013457 -0.0171105234611342 0.1174670702288029 )
( 0.0735424082062256 0.042347851355658 -0.0026025811319633 0.0741296516574824 -0.0181684385106943 0.1201303085747022 )
( 0.0717600280056834 0.0431328351983583 -0.0047280589470364 0.0740232623950162 -0.0198183860570069 0.1292887344179068 )
( 0.0709529961981863 0.0434008480899448 -0.0066797503914247 0.074028207854091 -0.0216136427696285 0.1418983479021662 )
( 0.070801400863418 0.0434175913725839 -0.0082667089888299 0.0747361844513139 -0.0236962272277904 0.1564318127349149 )
( 0.0709174275690478 0.0434238175462075 -0.0096767298531075 0.0753545215690297 -0.0263605063833407 0.1719192332017724 )
( 0.0714694037360787 0.0436309698635067 -0.0106839156400957 0.0760161836413009 -0.0293298693457696 0.1874227840157181 )
( 0.0725039765938474 0.0442435013571537 -0.0118506429998578 0.0765598725777023 -0.0323224955246643 0.2026003164532687 )
( 0.0740222997113805 0.0453234378605836 -0.0134367678295398 0.0769731750317873 -0.035451411371251 0.218295196783468 )
( 0.0761855217333037 0.0467420305975582 -0.0154208066937321 0.0770126048000852 -0.0387590898617382 0.2337753614705305 )
( 0.1007821746781202 -0.0142979568087508 0.0278186543552428 0.1163438071472785 0.0075437309834059 0.1173065828340128 )
( 0.0999968944616028 -0.011478792244343 0.0293829300037693 0.1058641351685025 0.0083210118942815 0.1307836261450474 )
( 0.098815345876034 -0.0009461514520123 0.0298293825205145 0.0912604300764018 0.0074972844552181 0.142876313053336 )
( 0.0987274512028232 0.0086320494388124 0.0264411105346572 0.084607783989122 0.0034099207940678 0.1465593809078763 )
( 0.0973217461673573 0.0158506929739964 0.0205058111744312 0.0829675885772004 -0.0022413912472935 0.1423225361834626 )
( 0.0934539814730471 0.0216195387774958 0.0146525211204202 0.0829205562624212 -0.0080881688842985 0.1345409198854482 )
( 0.087911487305658 0.0262896759491696 0.0095112401598309 0.0832614149970137 -0.0127329770239557 0.1256818733882557 )
( 0.0827061298752825 0.030315259997346 0.005201586926103 0.0840566872426505 -0.0156788794449129 0.1187105197428367 )
( 0.0776055857282974 0.0333171696016326 0.0022896443162229 0.0850776283982655 -0.0176961917136992 0.1156645876081458 )
( 0.0732100793810662 0.0359733847972077 0.0002308871165617 0.0856621792485577 -0.019001738219416 0.1183751310047195 )
( 0.0703951272343572 0.0380131373516162 -0.0009531228779869 0.0856282621036168 -0.0204262315559518 0.127639751335205 )
( 0.0690288209035668 0.0394620956752272 -0.0016262242584602 0.0852628546804764 -0.0227388160015708 0.1426670363530998 )
( 0.0684101431018577 0.0404648610850363 -0.0026648625674561 0.0851737366358544 -0.0254768466714565 0.1598020369167991 )
( 0.0687229575894094 0.0416742170524933 -0.0038065049989503 0.0861539760048741 -0.0284470936389834 0.1781280594575851 )
( 0.069701642367807 0.0430652557656456 -0.0046836025177681 0.0871509155291188 -0.031827109739248 0.196044014902586 )
( 0.0710341229630485 0.0446574087884599 -0.0054825175436691 0.0881101470636646 -0.0355224536601499 0.2129947585373592 )
( 0.0730024147746169 0.046898491526299 -0.0068466065340199 0.0891410497938374 -0.0388059330513645 0.2286232267292049 )
( 0.0758729843988485 0.0498003652911469 -0.0087022019256906 0.0897155583154828 -0.0420735117460279 0.2440046826824145 )
( 0.0796204354338645 0.0532901751869919 -0.0109968647167514 0.0898176202796155 -0.0452537284257607 0.2590776370237209 )
( 0.1100367980126101 -0.0217386883254562 0.0280229684013696 0.1249628079986464 0.0054593596440403 0.1270304801916136 )
( 0.1116196986612045 -0.0165786764390379 0.0288183612905812 0.1140538882904705 0.0054331402355056 0.1366357477790123 )
( 0.1094257069448918 -0.0045460946472081 0.0268625610787308 0.1007088061420108 0.0034364804637592 0.1428968986037324 )
( 0.1072605634687068 0.0048956983374652 0.0219430592325927 0.0955816452903416 -0.0014939671581977 0.1420596244969783 )
( 0.1022989154866701 0.0116909397292054 0.0160404028075061 0.0942317549525239 -0.0072030852347225 0.1351553383883444 )
( 0.0954773776243621 0.0167788786922164 0.0106941481661258 0.0946711620333608 -0.0121233286216944 0.1264453078846178 )
( 0.0878026057618532 0.0210629478702695 0.0067948729022667 0.0959176820157287 -0.0155736204041658 0.1186423264259864 )
( 0.0803715953926723 0.0252503697910918 0.0043444418702531 0.0971569819696051 -0.017694385730843 0.1143786724970007 )
( 0.0743731595598086 0.0286386018382121 0.0032791076731314 0.0980071031153751 -0.0191466835334597 0.1156863974111598 )
( 0.0699193956830289 0.0315875351105571 0.0030522845625861 0.0982546155169845 -0.0207966942666731 0.1236764526572106 )
( 0.0674330818414035 0.0345649924050321 0.0027487676979459 0.0976694996435968 -0.0228782832958414 0.1380920647018996 )
( 0.066656684903104 0.0372318145644517 0.0023488678339618 0.0970857199578812 -0.0257720960715341 0.1567243941679852 )
( 0.0667914506755077 0.0394163475118326 0.0017389695168252 0.0973781172028553 -0.0295138905980049 0.177219491290048 )
( 0.0680412353311038 0.0420333301229992 0.0007737635126123 0.0984509636759174 -0.033527179926858 0.1977834637728561 )
( 0.0700101344126983 0.0450379353080298 -0.0001153244736174 0.0998222805782031 -0.037532866577631 0.2161791186352369 )
( 0.072352823561438 0.0484113074459576 -0.0011430224798361 0.101458147739877 -0.0415505210909125 0.2331254152708873 )
( 0.0755598601463256 0.0525442203571907 -0.0027496909774859 0.1031195239019244 -0.0450352854399628 0.2487926876836431 )
( 0.0797817446790507 0.0573521497124693 -0.004905446705434 0.1040739908771632 -0.0481274749421971 0.2634678074125282 )
( 0.0851579552735109 0.0628355989692533 -0.0077080168095877 0.1042184022431692 -0.0509691516812763 0.2776406313914266 )
( 0.1218995586774549 -0.0274640707796807 0.0298514927683286 0.1323969271724477 0.0029542682293366 0.1350464382658812 )
( 0.1220895057942611 -0.0204656752979775 0.0294328965956028 0.1212487335102203 0.0022595418487875 0.1404821665395478 )
( 0.1177648591245869 -0.0078803805785347 0.0250943840053924 0.1099508412173346 -0.0006013520036835 0.142571405514009 )
( 0.1124566510221109 0.0008710651956878 0.0189602921578215 0.1064359836295245 -0.0058379958088527 0.1381686693311558 )
( 0.1034779037792239 0.0066752543843087 0.0131192619418124 0.1055065800325703 -0.0109103706475023 0.1289019712675307 )
( 0.094462449025716 0.0119444578039132 0.0084446793253137 0.1065467982552108 -0.0146791413522368 0.1202050872576098 )
( 0.085757758883756 0.0164326220220144 0.0060849967149829 0.1089236855577099 -0.0174833401005176 0.1143905487961665 )
( 0.0774271844015623 0.0205088286706461 0.0055922259075794 0.1106672755445703 -0.0188563775918328 0.1127958933519737 )
( 0.0711767294930745 0.0244349659410898 0.0059816819904596 0.1110783922444792 -0.0201838945419695 0.1179639024305536 )
( 0.0668042330092161 0.0281809368703815 0.0067196808322106 0.1107314649039927 -0.0228203174831358 0.1304992105566091 )
( 0.0648376780094703 0.0322795820000898 0.007020147916647 0.1098324683181331 -0.0257967967409209 0.1486040587820236 )
( 0.0648714545842257 0.0364377027129769 0.0066083516352662 0.109309571463719 -0.0296130005372516 0.170584120994292 )
( 0.0661130744046221 0.0402602636886778 0.0058952455679024 0.1099328514927886 -0.0341216337470719 0.1925102737675333 )
( 0.0682791198985596 0.0444474766241004 0.0048857435597351 0.1113354828199528 -0.0386637479517112 0.2135879523676762 )
( 0.0712331746680844 0.049230459303328 0.0036182094833429 0.1134603075574185 -0.0430119333766802 0.2323115227077254 )
( 0.0747411979251145 0.0544471739238495 0.0022855028800516 0.115971410887539 -0.0471280334316025 0.2491591861363124 )
( 0.0792245090488042 0.0604131199192159 0.000384628374463 0.1182155840804141 -0.0508198621397851 0.2647899725494273 )
( 0.0848983976489594 0.0671224038165788 -0.0025357186211025 0.1196009843610671 -0.0537503534645924 0.2787585412032271 )
( 0.091994489593411 0.0746757077127542 -0.0066217567060734 0.1200422533810498 -0.0561432006085417 0.2920380374166892 )
( 0.1333749682537291 -0.0318320893623605 0.0328902567905712 0.1399801739005045 -3.8104206282090726e-05 0.1412476883709466 )
( 0.1308941403383736 -0.0237639772594663 0.0309486158458166 0.1293455633102367 -0.001610887602624 0.1436532336482102 )
( 0.1227742332493549 -0.0115272435842534 0.0240823795993599 0.1194537077502129 -0.0051291082309401 0.1414598765453353 )
( 0.1136129899976756 -0.0037589368398908 0.0172112212270026 0.1170154577873758 -0.0096843101925715 0.1342297596496889 )
( 0.1020711717470602 0.0016672068993025 0.0116268817456697 0.1173240104037125 -0.013593129839985 0.1243243806849476 )
( 0.0908930059589414 0.0071191172267725 0.0079590077242077 0.1189246339940088 -0.0163121207483904 0.1157632614003409 )
( 0.0817213776044677 0.01231593715776 0.0068796016762414 0.1209606904465374 -0.0182825683827658 0.111309338834048 )
( 0.0739129149083216 0.0171177457386463 0.0074814121184799 0.1226002911867224 -0.0196121919448336 0.112650180050158 )
( 0.0677021644825483 0.0215693136513599 0.0090659223050318 0.1227558087674376 -0.0217247872105801 0.1215901585074034 )
( 0.0639709358204859 0.026348446961424 0.0103241661820392 0.122350054373014 -0.0249378693985317 0.1372518261651175 )
( 0.062701425304637 0.0315805652197181 0.0108688278357231 0.1218948113345152 -0.0286864988904371 0.1580944552080117 )
( 0.0636559972542981 0.0369643557235027 0.0106447436816885 0.1219624872733646 -0.0337107288009748 0.1823543755369551 )
( 0.0659949880544066 0.0425901865936909 0.0096617367064715 0.123001607693819 -0.0388504131005891 0.2052757287063388 )
( 0.0690981372244622 0.0486143436455806 0.0082541889657619 0.1249826670706237 -0.043842785697334 0.2271310332113842 )
( 0.073250840217713 0.0552081671888825 0.006667269390388 0.1281316144449608 -0.0484186195946502 0.2463382155640633 )
( 0.077990438145715 0.0622310579762811 0.0047582910639691 0.1317080203705551 -0.0524670012026273 0.2629186877455668 )
( 0.083474376663296 0.0698973809526235 0.0019564385654244 0.1347000615675925 -0.0561306993420286 0.2777406682683936 )
( 0.0908944537741913 0.0786897835543473 -0.0020695328552883 0.1365498185381439 -0.0589438616260926 0.2911304366342262 )
( 0.1004922254521259 0.0886677464584727 -0.0073330583017047 0.1373577071163034 -0.0607993006566469 0.3034912631076354 )
( 0.1435128663515294 -0.0354107086713639 0.0365868463408962 0.1479951223285504 -0.0035779736308239 0.1468807105926644 )
( 0.1371878750941827 -0.0266399635539206 0.0320182294020059 0.1380510364337645 -0.0054072129765371 0.1465708515174427 )
( 0.1242721705401514 -0.0150137996981816 0.0228211877715441 0.1291354783851269 -0.0088857253333538 0.1404034122921778 )
( 0.1117967251613561 -0.0077357122591208 0.0158687701146723 0.1272738748345928 -0.0125584885677201 0.1307731552844681 )
( 0.0985261155183741 -0.0019324534206721 0.0109316702154409 0.128448505265701 -0.0155646541124705 0.1204356966980547 )
( 0.086108380183107 0.0038239234964839 0.0086587467209913 0.1303863754611326 -0.0175764984979927 0.1125935940494638 )
( 0.0766669346842886 0.0093886725318529 0.0086084362543788 0.1321661953217267 -0.0190846582923909 0.1097312312263971 )
( 0.069456155714602 0.0146814206461104 0.0099650972413457 0.1336207239339299 -0.0206033712698372 0.1137219190939684 )
( 0.0640678059598066 0.0198494745191138 0.0122967186322464 0.134168909657439 -0.023395074986967 0.1258216861622188 )
( 0.0614885639455358 0.0254372062966751 0.014063761962835 0.1336751662044716 -0.0274188979164487 0.144216543265858 )
( 0.0613057002775333 0.0320388456279536 0.0144665576770832 0.133437671246371 -0.0319912809042756 0.1673756341534329 )
( 0.0631505201773172 0.038871627918286 0.0140518101951933 0.1342227250184665 -0.0377977593108036 0.193114882052202 )
( 0.0663808106395402 0.0461126004255901 0.0128540539912422 0.1363604428424554 -0.0436896286324567 0.2176402760384137 )
( 0.0705935257582616 0.0540491758991743 0.0109356004956412 0.1397797134821327 -0.0491683273841275 0.2403849531945094 )
( 0.0756337702577433 0.0621944713488348 0.0087741000445557 0.1440656529539864 -0.0538371686171108 0.2587804176972295 )
( 0.0815202909976657 0.0709897485452415 0.0059132416626084 0.1485821916420663 -0.0577362290889223 0.2739436927467629 )
( 0.0887525688308602 0.0809376488321875 0.0019433716492697 0.1528302444165732 -0.0612452984959769 0.2882497690422725 )