/*--------------------------------*- C++ -*----------------------------------*\
| =========                 |                                                 |
| \\      /  F ield         | OpenFOAM: The Open Source CFD Toolbox           |
|  \\    /   O peration     | Version:  2112                                  |
|   \\  /    A nd           | Website:  www.openfoam.com                      |
|    \\/     M anipulation  |                                                 |
\*---------------------------------------------------------------------------*/
FoamFile
{
    version     2.0;
    format      ascii;
    arch        "LSB;label=32;scalar=64";
    class       volVectorField;
    location    "0.0017";
    object      U_LES;
}
// * * * * * * * * * * * * * * * * * * * * * * * * * * * * * * * * * * * * * // 
 
dimensions      [0 1 -1 0 0 0 0];
 
internalField   nonuniform List<vector> 
13597
(
( 17.275442519790015 1.7224645865412178 0.0119362724017571 )
( 17.271945679759 1.7715579176976155 0.0121855111110811 )
( 17.277811725177056 1.8729904280102316 0.0119053617261587 )
( 17.292269402560887 2.004199107627649 0.0116977554226698 )
( 17.306483501785493 2.11573147211583 0.0116461441076616 )
( 17.316714681071762 2.2068136630842385 0.012227885486687 )
( 17.33088189128938 2.297164587223953 0.0137702589385712 )
( 17.348455962515658 2.392818359871404 0.0155965078268547 )
( 17.369528292870672 2.4876038400950864 0.0184463674451031 )
( 17.392455927902127 2.5813312854618755 0.0219612522697165 )
( 17.41688681807379 2.683604683874059 0.0270466618991517 )
( 17.44723096417465 2.7843267213070853 0.0332011079507889 )
( 17.479827366653726 2.881600547865278 0.0400886874627359 )
( 17.512126850883593 2.982952616705397 0.0484873953615006 )
( 17.545031228135972 3.085620374503649 0.0576005585829374 )
( 17.579806752140648 3.1859360024779364 0.0671634723945361 )
( 17.617951738473725 3.2804641878134406 0.0766793290149666 )
( 17.657356892301387 3.3731232724715268 0.0868558386006006 )
( 17.697095551356185 3.4682504717997493 0.0986592726866714 )
( 17.14260652174903 1.741307745923786 0.0164517347801603 )
( 17.120964017513895 1.8027373231673167 0.0155092345424611 )
( 17.104003582803255 1.9351697543022328 0.0139703466042769 )
( 17.090505922034254 2.087495199002545 0.0136649708716573 )
( 17.077746033689387 2.2048968180546584 0.0137132968888871 )
( 17.064165900958187 2.3124675900836493 0.0149898679502989 )
( 17.055505390540556 2.420781005015566 0.0175634813333432 )
( 17.04775840522705 2.5329975644242464 0.0211161114243712 )
( 17.04323220477846 2.645436468828488 0.0263425039737451 )
( 17.039050373524827 2.7557412329147746 0.0332259229641708 )
( 17.03345289306052 2.8754347289599167 0.0425346506190892 )
( 17.027504952993155 2.999552499559407 0.0530677368011184 )
( 17.020213953890575 3.121479472241428 0.0655675351950622 )
( 17.015635271732005 3.245457941709778 0.0787080625462394 )
( 17.012941252535757 3.3652830437627976 0.0916048970013378 )
( 17.01194369212095 3.477434329200781 0.1049132893791624 )
( 17.012209877981988 3.579733353266548 0.1171099795042173 )
( 17.012151689956724 3.682568725600047 0.1294379660877641 )
( 17.01705344882458 3.784263474371459 0.1422778479683315 )
( 17.01513475197927 1.7509656649358365 0.0249941114441588 )
( 16.975130570585126 1.821466832382984 0.0257016324188085 )
( 16.935170429080973 1.9736408232300744 0.0254279731621575 )
( 16.89471196211351 2.1383753600922817 0.0266708635057117 )
( 16.856441349351105 2.259927988758545 0.0294771106959682 )
( 16.822391992747985 2.379244004324629 0.0337454431837688 )
( 16.791480399370013 2.5011489242277216 0.039345669842028 )
( 16.755625529091336 2.6211597848362147 0.0471479118152336 )
( 16.721718261024307 2.7440154476491725 0.0568924678384008 )
( 16.688748176009515 2.8746916306005383 0.0677675493209044 )
( 16.652710198710157 3.008877024432645 0.0807817782169455 )
( 16.615343683758194 3.1495497079418597 0.0953777267041393 )
( 16.578318000081307 3.2922343564046965 0.11124346910474 )
( 16.545022444094872 3.427747518568082 0.1264194363817442 )
( 16.516371271531057 3.5507897930276084 0.1397902899355615 )
( 16.49211284271178 3.659652999195124 0.1520421516589954 )
( 16.467935987417203 3.756844209657548 0.1626163994336547 )
( 16.443912682842 3.853800677897269 0.1724884373808174 )
( 16.427889033354987 3.955161052214635 0.1818815010556116 )
( 16.89341012747503 1.7497892030479334 0.039758347510261 )
( 16.836882291714588 1.8282432061148448 0.0433931178778855 )
( 16.776684855956336 1.9890556427231785 0.0443413095433959 )
( 16.711487932543406 2.159182160074508 0.0471967077794381 )
( 16.64800812586635 2.285837411236365 0.0533173354805434 )
( 16.589679650449483 2.4086268489785034 0.0605582151021139 )
( 16.52870552317663 2.53688718264908 0.0694888499562632 )
( 16.463804578385812 2.6644681681576268 0.0802680588825077 )
( 16.403642675622265 2.7955968024175912 0.0922607325189742 )
( 16.34470834715213 2.935648677288716 0.1046979542947305 )
( 16.280421238254878 3.081181319444805 0.1188686566208788 )
( 16.220439011391775 3.23158827433326 0.133813749431865 )
( 16.165863918931446 3.3812814249401626 0.1476317382355918 )
( 16.111048252309704 3.52273104416553 0.1603949418886827 )
( 16.0606228850534 3.6437020028758313 0.1708965091418083 )
( 16.016501900116992 3.747756750742471 0.17887048895027 )
( 15.974611266784004 3.8421111107862993 0.1849130347673319 )
( 15.931301942480564 3.937498727275651 0.1898829133457446 )
( 15.891731825238072 4.044950922248135 0.1943518161230441 )
( 16.7812007132296 1.739043624953378 0.058115177632496 )
( 16.712067188830805 1.8267408278008708 0.0635145357040327 )
( 16.629257709943833 1.9944676834148485 0.0655110785464758 )
( 16.538576877500592 2.1617231150458327 0.0693154867983121 )
( 16.45284519878142 2.2880590947405803 0.0768648150294524 )
( 16.3698284749603 2.411651028256277 0.0853856701127045 )
( 16.280407446165597 2.542250947421556 0.0952044303413286 )
( 16.18943360002648 2.6739136642704047 0.1066892290779087 )
( 16.104144044164965 2.806388440825813 0.1186469854746611 )
( 16.017587531228934 2.948023280713605 0.1309311499824158 )
( 15.927141022265634 3.1034143437676893 0.1439028793083919 )
( 15.84169872636502 3.262940694412332 0.1557997853991451 )
( 15.76104966925568 3.4168537557224763 0.1659566254808862 )
( 15.6815952874027 3.559868309725976 0.1741236544225648 )
( 15.606825343236538 3.676739206431286 0.1794977175092115 )
( 15.53653980063234 3.782188159081099 0.183001731067898 )
( 15.469900970157129 3.883351586079176 0.1851226514785288 )
( 15.404910099227328 3.985258548172219 0.1859685045221846 )
( 15.34021573254328 4.101743033838471 0.1858484303692235 )
( 16.679461736756988 1.7177036971629611 0.0774239892747663 )
( 16.59525873623949 1.8126324897471755 0.0829923507841631 )
( 16.486389841517738 1.987756542389052 0.0851358599554216 )
( 16.372330988887317 2.150677280045136 0.0887868051210679 )
( 16.265478251512192 2.274230312528841 0.0960553281285038 )
( 16.159753365651316 2.398187374006746 0.1043881353887539 )
( 16.049181451602767 2.525745573051607 0.1136748750067983 )
( 15.933186925584472 2.6550861693346457 0.1245039690767812 )
( 15.815347631014628 2.788195067764506 0.1353568604580566 )
( 15.696525793473985 2.9379953005797543 0.1457995671730024 )
( 15.582143601281226 3.098693057340673 0.1551701002709704 )
( 15.46854208688605 3.260206047990672 0.162802639558778 )
( 15.35995956079504 3.418164622977179 0.1686372145606333 )
( 15.257817280563632 3.561751749530879 0.1716958085873531 )
( 15.157886783099826 3.681146802064532 0.1722583117383492 )
( 15.066204635459034 3.787028017756713 0.1715856052343521 )
( 14.976919386521155 3.889830366096664 0.1701165610417439 )
( 14.887892274416732 3.995131156914189 0.1679067387722793 )
( 14.798796876678914 4.116650936551945 0.1652343813685364 )
( 16.579355891649 1.6885434086286122 0.0959808765734455 )
( 16.47879090721001 1.7908000561784168 0.0999449149721021 )
( 16.346302783297045 1.968311822091372 0.1000011731008286 )
( 16.210287301869684 2.1236738595303324 0.1029191431003606 )
( 16.082684460589803 2.242499923026673 0.1096084708762012 )
( 15.950923672573497 2.3616951725730924 0.117426157164037 )
( 15.815648700076352 2.4871330059556445 0.1259223666988512 )
( 15.675479939404289 2.616887769529158 0.1342058668487446 )
( 15.529518337408884 2.7508664568136973 0.141627815017832 )
( 15.388168571754548 2.9044770027742715 0.1487021620307729 )
( 15.247085440961094 3.069094216826656 0.154264747846016 )
( 15.103282533340806 3.2356213695870317 0.1578603552360223 )
( 14.969940884057351 3.393291771130667 0.1595117917729815 )
( 14.844243428061327 3.534560029075279 0.1589103349467931 )
( 14.719782808628764 3.6589509490379033 0.1567950726164869 )
( 14.604106975854693 3.763392418025641 0.1540222152064215 )
( 14.492752331576243 3.86507164762548 0.1508932536424459 )
( 14.37905017586203 3.976049868843607 0.1473540311078424 )
( 14.265526018574215 4.101942246626329 0.1435795980206366 )
( 16.484508847488076 1.6552403214781024 0.110720175806302 )
( 16.365950787721605 1.7584978023041322 0.1123016931856688 )
( 16.21084393516331 1.93245609728763 0.1106589500118562 )
( 16.052409637078764 2.0804965624291234 0.1124712630131304 )
( 15.90130697462835 2.195039719412625 0.1179108833009206 )
( 15.74557138108589 2.3120870181176763 0.1246372314600377 )
( 15.584100106429764 2.438157470939732 0.1303838649938315 )
( 15.421191329596748 2.565337677361137 0.1354428584363646 )
( 15.25013070079478 2.698689732146696 0.1398404963979722 )
( 15.083763879274857 2.857735471471252 0.1433952199345085 )
( 14.914412012779284 3.0258302325356192 0.1457458991825111 )
( 14.746461658671375 3.1965367177228203 0.1467625494939172 )
( 14.58899782877585 3.3560328121495733 0.1457436557616448 )
( 14.435417047483355 3.491492095208744 0.1427209708612398 )
( 14.293197629517772 3.6097893445992497 0.1393155462301798 )
( 14.1554833635591 3.7147761917626 0.135704826347949 )
( 14.020449294800876 3.820721857391501 0.1318283281548755 )
( 13.884821800101625 3.938384931791401 0.1278442177385058 )
( 13.750031277776555 4.070043101534355 0.1238780894603923 )
( 16.39271006128641 1.6120619846597233 0.1214858612841053 )
( 16.253814175978764 1.7109255128637233 0.1206637915875098 )
( 16.0754888426657 1.8802528939716496 0.1176719690110511 )
( 15.897155952250827 2.021785676199091 0.1183901669059453 )
( 15.720752449071806 2.1361355505165154 0.1218134199690682 )
( 15.545165124962605 2.250746886509834 0.1260073250020365 )
( 15.363648404690712 2.372081836397208 0.1289053300844231 )
( 15.179151768329977 2.503368800556121 0.1314579815413624 )
( 14.987206808447898 2.641867317808064 0.1336478495917141 )
( 14.787444564374267 2.7992392957469976 0.1339980416596835 )
( 14.592464716860952 2.9700977730000573 0.1336932207310681 )
( 14.406302337779715 3.1406748915930267 0.1329398171096221 )
( 14.22150263265718 3.300503772676226 0.130090343583823 )
( 14.044157656888675 3.4351947818828035 0.1260960861390023 )
( 13.885069918820246 3.548853545236668 0.122402237976211 )
( 13.72642954332908 3.656208244499642 0.1183801953781857 )
( 13.5683432436594 3.764200701624253 0.1142921951483327 )
( 13.410643708469545 3.884593482310452 0.1110192527570138 )
( 13.251679626492704 4.021726281981916 0.108280280886019 )
( 16.29774182646998 1.5666061336535464 0.1286759822274337 )
( 16.13734733922305 1.666991576984908 0.1253838356587413 )
( 15.937795180503008 1.8290212448462548 0.1209596246949752 )
( 15.742187943909205 1.9584122496409364 0.1204634983789244 )
( 15.54741286743766 2.0725374796657987 0.121293183343796 )
( 15.352392234006755 2.181087209154481 0.1222558781648069 )
( 15.148799713814713 2.29390259633114 0.1226638940510194 )
( 14.937452137174088 2.424793743161993 0.1229103494713981 )
( 14.726918231573364 2.564529424940304 0.1231288140156083 )
( 14.507471778650864 2.7231146482759683 0.1221152852161384 )
( 14.29021520729456 2.9011550263277157 0.1202845424635591 )
( 14.08195520511921 3.075849649295664 0.1180063702635705 )
( 13.876611941674602 3.2310374001985216 0.1146627400201369 )
( 13.682976231860652 3.3655072078016253 0.1111106830524871 )
( 13.501215312412404 3.479227970088283 0.1076001911434476 )
( 13.31914736458314 3.584652823305744 0.1041669512000714 )
( 13.135523541884432 3.6921564629906745 0.1011270109198063 )
( 12.954302684410267 3.813712682414238 0.0985437157963851 )
( 12.773800340220676 3.957438780832537 0.0959973759487011 )
( 16.203925345743702 1.5217921769216238 0.131976119126638 )
( 16.027075912841436 1.6225476605652998 0.1270549854306415 )
( 15.803309261810137 1.7744108339348597 0.1215232329091832 )
( 15.5931475302037 1.891848770653512 0.1183063233903703 )
( 15.382595065794536 1.99937307668436 0.1162702969783647 )
( 15.165390137363852 2.103662780710738 0.1146447776597913 )
( 14.942360050458817 2.209929788885657 0.112712323775202 )
( 14.713681008206676 2.333572043243779 0.1113670636310253 )
( 14.482281852318971 2.4780987413929925 0.1106492987015481 )
( 14.247768920676371 2.640856392367951 0.1093713442344218 )
( 14.010396564227625 2.8190284945180326 0.1070191526396103 )
( 13.77451236725917 2.9996225920462285 0.104410230120847 )
( 13.55488569513997 3.152204771096425 0.101533072725083 )
( 13.345165993270236 3.2854476199969405 0.0987495749792272 )
( 13.136092160414806 3.400007670699696 0.0959632730981531 )
( 12.92765403992792 3.5027227355943262 0.0929962384238128 )
( 12.7210335311672 3.611172716753732 0.0901818353337443 )
( 12.521164072442255 3.736409150666142 0.0872169184002246 )
( 12.319211877850307 3.887849509638461 0.0842071114696602 )
( 16.109084754348896 1.4710834666779649 0.1327936413365691 )
( 15.914845729907997 1.5697447557223316 0.1262938717557961 )
( 15.670861463147086 1.7142968770789635 0.1187159221988274 )
( 15.44801530748354 1.8200175379712156 0.1131517905867214 )
( 15.221200774616094 1.9164670144921097 0.1088058474762582 )
( 14.985282672940356 2.01842764569318 0.1046386330359656 )
( 14.750159095047428 2.1287174708961425 0.1017912434481797 )
( 14.505492841762129 2.2525490205305103 0.0998761413680701 )
( 14.256181298429452 2.398902143833506 0.0984278464009282 )
( 14.003042450549176 2.560282438766837 0.096597872021546 )
( 13.746333052941852 2.7339624009827737 0.0945365339991606 )
( 13.490123230069576 2.9090139522151324 0.0928590059283981 )
( 13.247649697583906 3.0640591365594245 0.0904840603467272 )
( 13.014384714523262 3.202535300822206 0.0882140105944365 )
( 12.780424589208476 3.3157704917321893 0.0856108263207382 )
( 12.552844939616218 3.4141146066375 0.0825381018337892 )
( 12.331296487421266 3.523415517967881 0.0795372368746435 )
( 12.11216580337974 3.6582508337631374 0.076722399030171 )
( 11.887356435040402 3.819936903544703 0.0749906624125339 )
( 16.013178440092904 1.4110524036141092 0.1315804018460629 )
( 15.802051104274549 1.50693509299745 0.123038090362685 )
( 15.547023829804289 1.646601718593932 0.1129210349224835 )
( 15.309176803275086 1.747496249650695 0.1055201744615231 )
( 15.069419401296074 1.841772559404965 0.0999060709889814 )
( 14.821083513417522 1.941569211879295 0.0946722339814971 )
( 14.57168776934343 2.0511669987692365 0.0909678865008496 )
( 14.309029344770186 2.171558338972972 0.0884038128045978 )
( 14.041607634202778 2.311914516771239 0.086524619871936 )
( 13.773430952530711 2.4755351036675437 0.0852920235695973 )
( 13.495717408137 2.6541487082296253 0.0838490861130561 )
( 13.221407038283894 2.824108879372105 0.0828022027251365 )
( 12.95338465547027 2.9770364990030997 0.0811657870607095 )
( 12.691093521022417 3.113065253731897 0.079052250446589 )
( 12.44283083036592 3.219056238543087 0.0760317683124132 )
( 12.20510804164006 3.3181928630891004 0.073247978422361 )
( 11.965181402494744 3.4333079950528824 0.0713491134324704 )
( 11.72067730670536 3.574741714549571 0.0700508935490096 )
( 11.464691823966788 3.75093116750422 0.070718240776822 )
( 15.91996988794589 1.3445041311238393 0.1279682158372235 )
( 15.699623325897877 1.4381259659545924 0.1176009697205198 )
( 15.431050790071575 1.572914849741672 0.1055739607564473 )
( 15.179667649117516 1.6709840949103458 0.0962760328653889 )
( 14.926348150229554 1.7635643449368603 0.0892359352023841 )
( 14.66974264165637 1.8573438503073036 0.0839063637656575 )
( 14.40736284182152 1.9634809017569932 0.0799302353714828 )
( 14.136234415838551 2.0834612150427056 0.0773321270205338 )
( 13.851243073607153 2.2195432410024902 0.0758929304773584 )
( 13.56117847035621 2.382705446431741 0.075389754772952 )
( 13.262758573492018 2.5632720675318463 0.0743523522384875 )
( 12.963633305306908 2.736921101226333 0.0736996041191094 )
( 12.674052955160334 2.8905459996141265 0.0731052718637499 )
( 12.39672306209649 3.015914840968166 0.071068844961868 )
( 12.134180475339326 3.1164400567284254 0.0684870215420745 )
( 11.875094601413776 3.2224155626916176 0.0668401333380819 )
( 11.61094079480004 3.349873426458456 0.0661242440886388 )
( 11.335110636891596 3.493316681295342 0.0667581684046294 )
( 11.038190336161753 3.67496533762687 0.0691092519134991 )
( 15.831250262426504 1.2794982635291026 0.1225255987474247 )
( 15.599253896483518 1.371055652521726 0.1108453016462186 )
( 15.309748594052277 1.5012356057725271 0.0965798458957049 )
( 15.048964317321108 1.5896287758770988 0.0859213751680537 )
( 14.789237778609976 1.6768360226345846 0.077952772199807 )
( 14.52698638280988 1.7684637505257292 0.0719502690203956 )
( 14.252505266506338 1.8705505463028067 0.0682095388683163 )
( 13.966852970878934 1.9913912201497608 0.0664968850331429 )
( 13.670650588694365 2.125919978429962 0.066113803291981 )
( 13.362077723219054 2.283650973856399 0.0660390588743974 )
( 13.03932945708736 2.4641254029966317 0.0656472020509943 )
( 12.714910446578084 2.636831163565226 0.0660288604908268 )
( 12.403636024115473 2.791141518731482 0.0662193856260894 )
( 12.116740265113126 2.912195242873315 0.0645005432921741 )
( 11.840588651230783 3.0118451141131803 0.0631302787486886 )
( 11.557873922259024 3.1218442673180835 0.0626651744451131 )
( 11.261298538139483 3.2544602798921867 0.0631812830135122 )
( 10.946596647997325 3.4098974772094497 0.065268777234845 )
( 10.620481999873023 3.611502558796764 0.0674195884506403 )
( 15.74592966689598 1.2166915033777923 0.1153364643707336 )
( 15.502982206755169 1.3048648004092491 0.1015988250717096 )
( 15.200333742855038 1.428471550186557 0.0859101326663245 )
( 14.930826446564572 1.505689104233613 0.0747688147255208 )
( 14.666132245706317 1.5837223573125594 0.0667435931849053 )
( 14.396078965379962 1.6804031592683752 0.0612652565474918 )
( 14.11155719876898 1.776925144483961 0.058087895692254 )
( 13.808638844124776 1.888749180693632 0.0571754983620202 )
( 13.495427481619227 2.0271776607698238 0.05765979339572 )
( 13.16970064660423 2.1808908095436936 0.0577085931347949 )
( 12.81988500424956 2.363555871606956 0.0586877632124914 )
( 12.46966683425516 2.5389661769809537 0.0603755886076123 )
( 12.149037540584215 2.684052247003609 0.0605522955796119 )
( 11.854901927571948 2.801204974235201 0.0600694181694972 )
( 11.56112480215872 2.9052068043202177 0.059789625164122 )
( 11.251855633977357 3.0189044438754693 0.0599961415771101 )
( 10.918521018435117 3.154220710823638 0.062734928302781 )
( 10.566148298373854 3.3267130605617194 0.0642095810232754 )
( 10.234187221435583 3.5703794145955525 0.0627938992893493 )
( 15.66548699382152 1.1547734341892637 0.1072237461795059 )
( 15.409482235666426 1.2353125321320657 0.0905477800844508 )
( 15.099431502438884 1.3542774183299742 0.0748061929441216 )
( 14.828926359491476 1.426561023798332 0.0640569410977467 )
( 14.556492124009754 1.499222210006652 0.056499135720356 )
( 14.271807868668052 1.5914880995750642 0.0519838868264759 )
( 13.976129291813171 1.6803177408092778 0.0492604405905534 )
( 13.668002621130745 1.7893552370276151 0.0491190098806347 )
( 13.336755039165102 1.9289613194761863 0.0503590203676611 )
( 12.987574388589785 2.075271951823221 0.0507562485766294 )
( 12.626546088439405 2.2515766664664603 0.0530132821669788 )
( 12.257452032136674 2.438213442331315 0.0560023849778839 )
( 11.923516890058082 2.579838233581506 0.0569488162255399 )
( 11.61215022899529 2.688581690787602 0.0573734110278501 )
( 11.2900515412179 2.7961969927974906 0.057249878338493 )
( 10.94400662155181 2.9094711043705144 0.0580144742813492 )
( 10.578068941477795 3.0546927947336746 0.060059060003964 )
( 10.213152242537872 3.253152551778078 0.0585559720388336 )
( 9.893982461638757 3.5473992915940835 0.0555128052572447 )
( 15.585944307253031 1.0921603496308367 0.0978454721606765 )
( 15.322098351513016 1.1652496307160718 0.0797970577935335 )
( 15.005527445323002 1.275799272377118 0.0636136285168792 )
( 14.735335147572272 1.3432160183203783 0.0533908958029441 )
( 14.457365672650766 1.4173377864266332 0.046883735690078 )
( 14.159994029218696 1.5040721495892984 0.0431180233373871 )
( 13.85634142937434 1.58180165386975 0.0405206210535105 )
( 13.536843823608532 1.6920704076283226 0.0411744775287622 )
( 13.187283709256938 1.832371307934593 0.0439482506298597 )
( 12.820584135770096 1.9791195017948668 0.0465424174320217 )
( 12.440526789991114 2.1441259874346734 0.0495035055336051 )
( 12.057668043097973 2.315543513760069 0.0525390972288373 )
( 11.709286560711613 2.459013475083211 0.0543144993692272 )
( 11.371375061506384 2.5729437404293494 0.0550022689134617 )
( 11.01959672203211 2.673396866023611 0.0552000141199564 )
( 10.645379704741924 2.78864802198812 0.0556094319118232 )
( 10.25574185846374 2.948066990338946 0.0548910764226959 )
( 9.8966323024969 3.189099357600526 0.0509832623237354 )
( 9.56667037118384 3.5447178616861046 0.0476923376830704 )
( 15.511987864042604 1.0275248291209782 0.0869916056097054 )
( 15.243316748360376 1.0932951165663194 0.0684500071513885 )
( 14.91795001816826 1.191518549828556 0.0520165365597951 )
( 14.64767500817317 1.2576174471066008 0.0430592993138449 )
( 14.36414496787974 1.3283138274641098 0.0375095789535582 )
( 14.054704559812713 1.412071163881696 0.0348784112891802 )
( 13.750833162601788 1.4906869263267457 0.0333976974431015 )
( 13.418254589210438 1.590733168179808 0.0345428258548813 )
( 13.047925095470408 1.727294894860722 0.0384357592446732 )
( 12.661284183552048 1.8782028873025105 0.0428793641826207 )
( 12.255700303110451 2.0410518272675566 0.0466415231068774 )
( 11.86756809208008 2.197972916146648 0.0491745903386143 )
( 11.499578324313283 2.3313835851204945 0.0507371393411205 )
( 11.13141985278942 2.446925173042109 0.0526565771235138 )
( 10.760312544065515 2.5507029446531284 0.0541707377130239 )
( 10.36676272997919 2.6776917725681195 0.053627864749018 )
( 9.963094773016223 2.858879679054111 0.0503491450584126 )
( 9.59887942770044 3.138318114821722 0.0453361247544306 )
( 9.172184082911714 3.508540681130468 0.0393552352921382 )
( 15.447394501582185 0.9627304172645808 0.076138808530465 )
( 15.168884230672692 1.0166717597334618 0.0564811229032782 )
( 14.837514028831537 1.1060549734303038 0.0405137746930527 )
( 14.564289123562936 1.1706874544135573 0.0329006821506057 )
( 14.275698704480728 1.2396510589124414 0.028399548988633 )
( 13.958022705599682 1.3242100618264872 0.027351249236521 )
( 13.64347233309491 1.4006952414640093 0.027933960367475 )
( 13.305620717091234 1.4910798359440811 0.029900010748073 )
( 12.92532043585499 1.6181251596999096 0.0343982336923021 )
( 12.51729067968262 1.7612001909889248 0.0392042986338716 )
( 12.091420596816606 1.9276582873784436 0.0427183222384035 )
( 11.689533368163737 2.0864858310930803 0.0456267673677718 )
( 11.29792969537838 2.20965222267887 0.04768527745044 )
( 10.908290248497137 2.3162747803702435 0.0496880953151011 )
( 10.509082402502443 2.434883623146277 0.052300023564936 )
( 10.097767067834242 2.5738530176849626 0.0517159769486023 )
( 9.692374850362718 2.777624906336832 0.0457964472086156 )
( 9.266952918240454 3.086364217758286 0.040945192526465 )
( 8.670206918956234 3.4050882081837286 0.0330818254236728 )
( 15.384714790055131 0.89368196335629 0.064466982528497 )
( 15.10453246862346 0.9439612759438876 0.0451570968062002 )
( 14.773018879399096 1.0247337660566302 0.0300435322606299 )
( 14.490720523604326 1.078610489237139 0.0229527899318331 )
( 14.195808142774634 1.148137483932027 0.0197641368089288 )
( 13.87391424981707 1.235817940580895 0.0206635790355479 )
( 13.547297793904104 1.3054522616026305 0.0230946520691677 )
( 13.204636681034836 1.388744042916725 0.0262363208193918 )
( 12.806349727524818 1.5116073351667076 0.0317825185422714 )
( 12.381030536209044 1.6501297319980932 0.0367308260176529 )
( 11.939819882486844 1.809910550023116 0.0396262719528093 )
( 11.50959325777854 1.9659266744910493 0.0428914810819295 )
( 11.105400030537549 2.0935735009737155 0.0459237039236093 )
( 10.708408401537245 2.196714570793671 0.0470481175553507 )
( 10.28241514841571 2.3190557349350223 0.0479682860349262 )
( 9.844930288155414 2.4705730786573543 0.0455605717083046 )
( 9.428312030847817 2.6936917799882707 0.0407568769789344 )
( 8.907604655946544 3.0105751512953423 0.0356916321201617 )
( 8.056278920665697 3.2229594294600057 0.0256547433446458 )
( 15.326323857750518 0.8236104361204296 0.052304201028603 )
( 15.046439857791237 0.8730551078940461 0.0345649334685281 )
( 14.713414712036071 0.9488907743127608 0.0208779270982275 )
( 14.427813787375849 0.9975765265276656 0.0145717970522681 )
( 14.12318161215136 1.0617894735240894 0.0128716672719632 )
( 13.789230658976216 1.1360675680544383 0.0154218757166939 )
( 13.454776473121717 1.203127730070357 0.0189048780571587 )
( 13.107109819802902 1.2827197186688837 0.0227077964805482 )
( 12.684284893816404 1.401478012062748 0.0290060874534075 )
( 12.241964419326909 1.5433767749744902 0.0345775560505464 )
( 11.798050953601775 1.6945250080274354 0.0377228755593876 )
( 11.355654297549195 1.8486594171739548 0.0413035312480813 )
( 10.93526701061766 1.982071915357024 0.0444582514502033 )
( 10.510949393513862 2.080267896032721 0.0457503266907509 )
( 10.07180477685519 2.197323916194322 0.0453382078862614 )
( 9.61924772520578 2.360390216077447 0.0408123536372193 )
( 9.141910922398884 2.6058788060174707 0.0353093322652877 )
( 8.54809808963298 2.920500979002295 0.0274650835667115 )
( 7.285162009871273 2.9317784254237957 0.0184780963086813 )
( 15.272442220008177 0.7601090953484175 0.0412204482372193 )
( 14.987714731315805 0.8026198556104308 0.0241915140447396 )
( 14.654236962224354 0.8729208963202431 0.0119105616330353 )
( 14.369630221509208 0.921544632026556 0.0070556730384956 )
( 14.05671101469138 0.977776933277594 0.0067126848255292 )
( 13.71826690451116 1.0392709468751022 0.0106652117067277 )
( 13.376312358625732 1.1090944484061245 0.0157037688995608 )
( 13.011583331354846 1.1927232562599783 0.0203674332813003 )
( 12.570237442221217 1.2998290141575872 0.0264825028736437 )
( 12.106764504912324 1.437474131905634 0.0326061224844789 )
( 11.656716403679535 1.5797137916533923 0.0366179256737479 )
( 11.215347196700057 1.718147678245798 0.0396233617326815 )
( 10.77830445020424 1.84543949612882 0.0420417425770553 )
( 10.325060599815387 1.949588332194507 0.0438893507693482 )
( 9.864598853339713 2.068270868774985 0.0448098056674833 )
( 9.394827577072896 2.240605160569213 0.0407125895962983 )
( 8.838440015594227 2.4990018695666283 0.0324612392686597 )
( 8.046902513618008 2.743305684265988 0.0239441898229574 )
( 6.534058745900524 2.6023505604791537 0.0168258898203141 )
( 15.2250486934097 0.6950296282379772 0.0306931918507154 )
( 14.936412455439536 0.7337968313839864 0.0146169421871997 )
( 14.598347480129751 0.7982005812721998 0.0040141122852629 )
( 14.312481113340857 0.8403795098695641 0.0005373705982039 )
( 13.99563361343716 0.8952344047329254 0.0020760138861549 )
( 13.658880813918095 0.9595277322992142 0.0067777212469006 )
( 13.314868173260304 1.027658888517701 0.0124446241751219 )
( 12.92885206835497 1.1045209841744563 0.0182018035433642 )
( 12.475915566654155 1.2062473804440106 0.0245984468230307 )
( 12.00481910940156 1.3372247664663284 0.0311698290617877 )
( 11.537621531870387 1.4712404351845296 0.0354075087720543 )
( 11.072649345641558 1.5921057225884785 0.0378673464373357 )
( 10.615522020488385 1.7038803493390555 0.0392414476500224 )
( 10.14634597252508 1.809422771635527 0.0395842603263638 )
( 9.670058263276331 1.9384602979311552 0.0400600933866042 )
( 9.163738537653504 2.1344010784941467 0.0359158355660648 )
( 8.544413111009842 2.38447280768327 0.0293845602345826 )
( 7.499409440704616 2.497550910698871 0.0231489108569525 )
( 5.884753713932841 2.2883524631024987 0.013868557329142 )
( 15.183267742440597 0.6281388353186844 0.0203417433231052 )
( 14.89671705609456 0.6655157232377099 0.0062526633970485 )
( 14.551900703974292 0.7262445036379205 -0.0029313513252136 )
( 14.260155587558708 0.7614182556290287 -0.0048059354971358 )
( 13.937899729352717 0.8106014378826882 -0.0020383783842732 )
( 13.59804273681264 0.874249500637991 0.0032070326766185 )
( 13.249599140753634 0.9298662898616086 0.0089448147378266 )
( 12.852738632538372 1.0023831697947092 0.015549134449902 )
( 12.399520133503454 1.1128445912434877 0.0231440061378319 )
( 11.921755419384136 1.2367621928054044 0.0294797311297932 )
( 11.432142867159676 1.3665414411159136 0.0327227129194817 )
( 10.943326900704964 1.4722527924142663 0.0353381553098108 )
( 10.466790007052522 1.5691915345690006 0.0361912638772125 )
( 9.971589831609814 1.6715296692292068 0.0354417352249287 )
( 9.479706705875111 1.8047867974733112 0.0340568698902187 )
( 8.916194538461832 2.012946079044557 0.0286682534038153 )
( 8.217854643689464 2.2354966771485394 0.0231636473407722 )
( 7.036184932859549 2.2514647478017693 0.0194547676477368 )
( 5.281953470085542 1.9690831578248336 0.0115298845331485 )
( 15.14751839788963 0.570083740719139 0.0114440398739475 )
( 14.86066562858513 0.6010030725019049 -0.001130899819326 )
( 14.511361207695034 0.6533583280616374 -0.0093456815472494 )
( 14.214646458289865 0.6859278494500232 -0.0101775446975751 )
( 13.888351228053804 0.726887685022559 -0.0066176699835205 )
( 13.547457691899634 0.7802986507247014 -0.0002113659750443 )
( 13.186200091324883 0.8285713450576067 0.005948251441155 )
( 12.780746534941336 0.9070701942518354 0.0135972541902325 )
( 12.32812206837497 1.0181465497115374 0.0222277399355736 )