/*--------------------------------*- C++ -*----------------------------------*\
| =========                 |                                                 |
| \\      /  F ield         | OpenFOAM: The Open Source CFD Toolbox           |
|  \\    /   O peration     | Version:  2112                                  |
|   \\  /    A nd           | Website:  www.openfoam.com                      |
|    \\/     M anipulation  |                                                 |
\*---------------------------------------------------------------------------*/
FoamFile
{
    version     2.0;
    format      ascii;
    arch        "LSB;label=32;scalar=64";
    class       volScalarField;
    location    "0.0013";
    object      k_LES;
}
// * * * * * * * * * * * * * * * * * * * * * * * * * * * * * * * * * * * * * // 
 
dimensions      [0 2 -2 0 0 0 0];
 
internalField   nonuniform List<scalar> 
13597
(
0.1758215557060622
0.1807633495855241
0.1919036281526374
0.208985558811043
0.2244078338959835
0.2361782677922098
0.2460207792421563
0.254317674895977
0.2603627171782823
0.263670341632555
0.2649010378926033
0.2638960461484797
0.259855666161826
0.2535424141838595
0.2458163933196783
0.2369142463905068
0.2267262404399968
0.215227482641168
0.2039238816355724
0.1835355662721094
0.1913527726248866
0.2081075040507394
0.2319895646578351
0.2492628347588337
0.2620395604030484
0.2719933842017371
0.2791767495580328
0.28266260215951
0.2820140015332261
0.2774953765633021
0.2689031235353757
0.2570905342727407
0.2437609040816664
0.2302211715796281
0.2172144954444444
0.2048430474855051
0.1926904259654406
0.182344702322296
0.1898721176416495
0.1990494261757031
0.2181243059257218
0.2411925699158343
0.2544058053476754
0.2630074486549426
0.2664629530623977
0.2651465063737863
0.2595164884683585
0.2497220914835719
0.236227942648634
0.2205525449160255
0.204277111372264
0.1891753276629659
0.1765905445490313
0.1664825797488265
0.1579936117501827
0.1503376627549474
0.14426286445276
0.1922986795115662
0.2016969605596655
0.2185571953707838
0.2352018916405556
0.2410264075838292
0.2413461094621801
0.2353277102163478
0.2253875758857688
0.213082769108403
0.198438466237445
0.1814992818133352
0.1663041486647244
0.1530962509676969
0.1424379042222311
0.1353113219069216
0.1302660341862964
0.1265063352599224
0.123432181143231
0.1212587875728936
0.1916416946226431
0.1987739451384441
0.2110133881773984
0.21964602725961
0.2174950783289951
0.2104047848327093
0.1980251934061848
0.1833918417425259
0.1687490429113299
0.1541259886829369
0.1408430946069039
0.1310192085478146
0.1242730437467198
0.1203446897313429
0.118634753623101
0.1181346322067292
0.1182309679366919
0.1188105925627579
0.1198233903161357
0.1878654109182881
0.1913265365527131
0.1977424443563348
0.199200903953211
0.191136297972808
0.1793318854092174
0.1652208339055409
0.1509175859934723
0.1378044107363673
0.1273508922009707
0.1211471305460185
0.1178966765342979
0.1177557896389376
0.1194237401833778
0.1215959115452787
0.1241404166193614
0.126748530400177
0.1291545609379727
0.131361525010238
0.1820696243232518
0.1830930459789034
0.1836349193140791
0.1781924434144393
0.1670314767770866
0.1536150017403778
0.1403832106379865
0.1296117678577962
0.1218878129113636
0.118164237928629
0.1180370502445652
0.120297527640491
0.124642310654346
0.1292925032551211
0.1335085116678489
0.1373055402949322
0.1403596222679664
0.1427010480005702
0.1442120555887567
0.1771326846709092
0.1753450755658452
0.1707281814063581
0.16087403980547
0.1481380501648051
0.1363165644544242
0.1265919060756334
0.1205328795428095
0.1184594381197208
0.1196917946668123
0.1239904083254253
0.1303419261792144
0.1365926399571191
0.1421635313613632
0.146367141677088
0.1498065768979324
0.1520910410707878
0.1532918349035481
0.1533721772697392
0.1733105884626077
0.168054144139022
0.1592025718173529
0.1479410465637797
0.1362775612152833
0.1272007398819916
0.1214977756498931
0.1199764408365753
0.1222563306938345
0.1275026723575334
0.1344693216889034
0.1422218778280536
0.1484724019154506
0.153538683473269
0.1570924938179838
0.1594031563728047
0.1602179926929482
0.1599194599381209
0.1584612829438705
0.1719351550270972
0.163166756974958
0.1508225369792535
0.1399565224621035
0.1303710469852092
0.1239257478761369
0.1218654645436849
0.1242367261002914
0.1297425933653351
0.1372869742050853
0.1452320176413173
0.1524731915709231
0.1582295478493412
0.162287881448135
0.1646376727559908
0.165675635056642
0.1653054050508444
0.1637210651302088
0.1611560202118985
0.172136968615845
0.1604915362319883
0.1465773540653102
0.1359680640927922
0.127699626646231
0.1244707197144219
0.1259240201643735
0.1310670615230323
0.1385703002741916
0.1467951150930417
0.1544226383228773
0.1608928406798873
0.1655064432075986
0.1682259116451208
0.1693562521616346
0.1694471359209468
0.1684689383266635
0.1662091276649804
0.162917644204846
0.172650177451552
0.1592509048089218
0.1442059546896837
0.1342684013041781
0.1282308814327489
0.1274111345964987
0.1311402287812271
0.1380723335855057
0.1462102746740314
0.1543178108101733
0.1615089202938572
0.1672891502878458
0.1707600559547293
0.1722765705429881
0.1726862424861877
0.172253778562837
0.1706976677181225
0.1680340018316024
0.1642854209338622
0.1739972215466436
0.158293046074094
0.14277097179065
0.1341901596006528
0.1303538535218787
0.1315003593497615
0.1367087286986872
0.1447536376938795
0.1533245139230388
0.1608240589682162
0.1672888228642465
0.1721443264423695
0.1748930696184854
0.1758356566143192
0.1757860086282149
0.1747703367467958
0.1727970768534614
0.1699370084400631
0.1658328636451887
0.1762077666090603
0.1573948147042919
0.14207549740814
0.1350832469296904
0.1328780010891827
0.1358245858195761
0.1421961038119746
0.1505822696021853
0.1593229285363606
0.1667557952344569
0.1722181916578989
0.176462444847974
0.1785198225024951
0.1789984235653173
0.1786185732705865
0.1772360893065895
0.1750264679399419
0.172155719135978
0.1679749114863311
0.1781150891722758
0.1577010480261287
0.1421915817496109
0.1363843758850536
0.1358840502757613
0.1398073778484603
0.1470362616653698
0.1558739878203864
0.1643491928663913
0.1714787935640709
0.1765959115666676
0.1801657253806506
0.1816237196454335
0.1819249975240288
0.1815225151436677
0.1799430606803706
0.1776828807138308
0.1747351239435611
0.1712426316078343
0.1785920374662099
0.1578995254823352
0.1428108368473304
0.1380054460213397
0.1389726754678523
0.1435693167343714
0.1514078988686303
0.1605373949510473
0.1690658703767894
0.1755416515675296
0.1805843453001621
0.1838397942021614
0.1850108779519521
0.1850361886360088
0.1844018630922381
0.1827951583335698
0.1806848090782304
0.178338329557527
0.1771870202747415
0.1785184341518827
0.1570845200262492
0.1429644548235244
0.1394128795343887
0.1413743871314239
0.1470899775044784
0.1556076028949533
0.1646840936341003
0.1728261645907754
0.1792594411774523
0.183938050101422
0.1868744725450092
0.1879265381422926
0.1875989648304665
0.1870206142382741
0.1858051414239199
0.1842020278859237
0.1841187366381085
0.1857306303986251
0.1781071222866033
0.1566506487465707
0.1434659836233408
0.1408382100780948
0.1434846296392016
0.1501381848117598
0.1591994852798464
0.1680191909950677
0.1762927835919293
0.1827980833554615
0.1869039164381439
0.1894998923299945
0.1905325333540083
0.1903230259918354
0.1901119465052004
0.1893913747109875
0.1893838351268086
0.1920213914308066
0.1926451963155236
0.1767055792344909
0.1557342555073213
0.1439374856999082
0.1423643425069631
0.1456669538224517
0.1530338872165848
0.1620986292756275
0.1708824234982241
0.1796156662792646
0.1862605046916635
0.1904284605375004
0.1925747721279103
0.1934641914808511
0.1936160558584565
0.1936749506355991
0.1939555304382679
0.1965084096070002
0.2013386016798065
0.1962902357271235
0.1752361348639557
0.154732065331487
0.1440284261241843
0.1434114479599985
0.1474882966320639
0.155622566874076
0.1654262054276259
0.1743851488576303
0.1829046515330484
0.1896237402185765
0.1936051658767098
0.195459339503546
0.1964750392609056
0.1968665400739059
0.1974466596976145
0.1996684573069961
0.2051896606717667
0.2098466118257386
0.1961544139042706
0.1737052856144189
0.1539608392626462
0.1441877345620568
0.1443968311682208
0.1493164016813157
0.1578505919943285
0.1685315396210749
0.1778702865136077
0.1862334674826131
0.1927036248272764
0.1962722120785637
0.1981447195009091
0.1991054698671241
0.1996956841085556
0.2015760523731441
0.2066950734777964
0.2148711991887503
0.2165561013883797
0.1880879613882862
0.171659727345631
0.1524650470561577
0.1445037272481593
0.1455860630987029
0.1513561459723441
0.1609972823834654
0.1720044819957443
0.1810909776844129
0.1890628551077358
0.1952107147676756
0.1989150684760154
0.2005179420047689
0.2012729569198819
0.2029400585556715
0.2066938191459457
0.2148954079106161
0.2241349558394531
0.2212215794670372
0.1696279790107567
0.1689910871691552
0.1504989336335187
0.1445781986012256
0.1464693460994873
0.1531690262200921
0.1641305132830333
0.1756304837752459
0.184408463774618
0.1920284190518518
0.1978686527109159
0.2014431015751267
0.2031236872311606
0.2043328053285568
0.2069989181299259
0.2132428760046962
0.2239058103209403
0.2323961685861743
0.2176179160269368
0.1507767811591061
0.1666150993750257
0.1489884953967038
0.1448146785921232
0.1479021645213927
0.1552502149402695
0.1663847770225954
0.1774825156700709
0.1869158401910975
0.1947637211435682
0.2004127822974273
0.2038110827534509
0.2059705838090279
0.2080070150271351
0.2116524342129713
0.220291287571521
0.2325710766391758
0.2392665502011215
0.2085342339106662
0.1345009981675727
0.164696688785291
0.1482764009350947
0.1452262376904117
0.149425563408006
0.1574806079524423
0.16859338941975
0.1795833029422771
0.1893042699183688
0.1968992096069611
0.2024827276801122
0.2060189977141745
0.2087021506963307
0.2114189903924772
0.2169406832201983
0.2275659551567181
0.2405265838052836
0.2430684597405415
0.1996325263685157
0.1185411119689655
0.1629974947734896
0.1478409381355131
0.1457501118450237
0.1505016925021388
0.1595604696553886
0.1714577772791823
0.1825140256888945
0.1917071325785879
0.1990163431505671
0.2046260452070966
0.2080632100179072
0.2110317034675302
0.2146776116152797
0.2221185131771204
0.2345879942761596
0.24782922547316
0.2404808988595099
0.1868985103197674
0.106965972670787
0.1614793159391161
0.147382945290491
0.1462205912777346
0.1518324363190537
0.1615813752574521
0.1740194238177938
0.1848953976229191
0.193811523559407
0.2012201223633184
0.2067978220348598
0.210090504794229
0.2131349683283743
0.2176497257277027
0.2266788605807368
0.2412188552910344
0.2540572392528883
0.2374285969686464
0.1743067677581666
0.0977859005082195
0.1598353611920175
0.146743779062335
0.1466571305146893
0.1536691439985691
0.1636295170646077
0.1756718017853996
0.1868122260180071
0.1958948103206553
0.203230871555842
0.2088019290707639
0.2122188434738716
0.2153026041267208
0.2205363090322578
0.23123545517058
0.2481666134684151
0.2601895986677444
0.2384551013804244
0.1666165275562983
0.0908977946136412
0.1588308493343952
0.1466350975513363
0.1473741949799506
0.1553198182592504
0.1654137876456116
0.1771795767426725
0.188503173915331
0.1975162465976419
0.2048223097862221
0.2102601645190362
0.2142015475446596
0.2178807032526078
0.224474663096036
0.2363595582578496
0.2542510109744704
0.2644521076626883
0.2373835977731242
0.1605130995827644
0.0869866586130104
0.1583209228969342
0.1470154796830718
0.148065168011595
0.1566982097101655
0.167344472833045
0.1790950402102014
0.1903918773922843
0.1990775740946715
0.2061722327050212
0.211028327507885
0.2154337603435678
0.2202973316145788
0.2281416710585873
0.2412405531507636
0.2595982594986187
0.2613766576067666
0.2280020578456895
0.1543818564931532
0.0846843949062815
0.15774891130485
0.1471132694295436
0.1487922765033538
0.1580248164574659
0.1693859872371924
0.1813753811836274
0.1922508213423808
0.200890184843632
0.2080078668826947
0.2123485312798471
0.2167257576461911
0.2226515659310075
0.2312960097547579
0.2457394440757173
0.2645579161900155
0.2579084928685514
0.2182263428683267
0.1487549785250695
0.0831036353977595
0.1575543633004032
0.1474081548728537
0.1500305880493364
0.1596385128681595
0.1713669444744801
0.1834772057804696
0.1942230838876193
0.202926585431567
0.2098385162087514
0.2138914388747054
0.2182346802098425
0.2250654066768181
0.2346921721661186
0.2505968137768428
0.2689196235037674
0.2590921238565999
0.2150135241721065
0.1438620667187526
0.0809708501595444
0.1575286011044292
0.1478126878237978
0.1514238681443959
0.1615544420051743
0.1730522970650319
0.1849565926010838
0.1959594663783208
0.2046789879914381
0.2111380045543892
0.2152928285790736
0.2199207880799977
0.2269897086962405
0.2372798913878067
0.2545210264232219
0.2734384091908591
0.2618209742034416
0.2139322003296087
0.1401565830964667
0.078507803142124
0.1576052324534186
0.1482680987306439
0.1528073166662397
0.1631630013159251
0.174482943011174
0.1862145095715403
0.1972595039276601
0.2061115081699615
0.2126603367605899
0.2169938976833049
0.2219020967859837
0.2288203204205769
0.2394290368668813
0.2575181961318369
0.2775319632548675
0.2647275604235427
0.2138276324080409
0.1379337998994805
0.077154974662841
0.1579838268090946
0.1490302633975256
0.1543026443049573
0.1646661896411136
0.1762784231777365
0.1875808284791995
0.1983738212683113
0.2074824104972648
0.2142651572328385
0.2187154351527921
0.2235411767867228
0.2304065158298393
0.2414913580835367
0.2605353569948984
0.2808176212115111
0.2662455294120591
0.2132335426978295
0.1364155555878639
0.0764733011003499
0.158151321934542
0.1497647542823283
0.1556313252805905
0.1663552498090457
0.1785391810729177
0.1897069845668784
0.1999413043674886
0.2086112403084717
0.2152888768402233
0.2200572447645649
0.2248586791957559
0.2317378234696543
0.2434713365446322
0.26348433529978
0.2839907719771821
0.2679344618816335
0.2121426558837123
0.1344284740473845
0.0754161863457387
0.1581699450294164
0.1501943126808378
0.1567787738194899
0.1680165507746692
0.1805312424090524
0.191685914045437
0.2018314570034289
0.2098032399389041
0.2160561651748952
0.2212587554320427
0.2261234066482798
0.2333492266535826
0.2456024935947206
0.2662297109028251
0.2862463604924077
0.2685235616525723
0.2123151063485223
0.1342320388469993
0.0745033185937938
0.1583821329129823
0.1506776738510604
0.1577398250794084
0.1694307557924358
0.1820455812691165
0.1929346583470319
0.2033541173603048
0.2110939490473995
0.2172740862797386
0.2223929295954514
0.2271748315460119
0.2349109516718786
0.2478379086095705
0.2687346474400987
0.2866220049336858
0.2677938368995799
0.2118031925673487
0.1345079499747425
0.0742933266136936
0.1586096230608751
0.1513527373782893
0.1587143695599786
0.1703891891141352
0.1832528573636157
0.1940970246476476
0.2044433037391647
0.2121070221941651
0.2183912444090211
0.2230462710083463
0.2276725706495558
0.2358631091689877
0.2496245031170637
0.271125411648525
0.2863122316020039
0.266432213290158
0.2098700161728333
0.1333043917210139
0.0744376136402238
0.1590782353019913
0.1521129103303691
0.1595628773372907
0.1711331302219577
0.1844565640510841
0.195224488663983
0.2052316172811046
0.2126866987997409
0.2189184151110963
0.2235841671158895
0.2281271101466607
0.2366074755816043
0.2508462074878596
0.2728069782880145
0.2863395469248054
0.2644394652089762
0.2084516434890239
0.1326982390535697
0.0745639147550191
0.1598549765306441
0.1530999678010546
0.1607058248389243
0.1722330910645295
0.1856997236923393
0.1964701320265316
0.2060486095219331
0.213176939501627
0.2194607213495151
0.2243386127759721
0.2288546919461961
0.2374223137705791
0.252001113209355
0.2739328094704035
0.2854384890129943
0.26162730641009
0.2066549688556608
0.1320519565169656
0.074674963353934
0.1602596169881315
0.1538774642520765
0.161593391446435
0.1733797187589971
0.186641457197678
0.197574157179903
0.2068846843593716
0.2136342838566577
0.2200557875350896
0.2250736509918562
0.2297303642988423
0.2382295995734044
0.252833080368314
0.2746344905417711
0.2851042211088965
0.2604435904289336
0.2050076799835299
0.1308643048344633
0.0745295293078221
0.160779052071729
0.1547855124446819
0.1621652300600915
0.1741644685119772
0.1874909809563192
0.1985716383204367
0.2077762705038764
0.2141100287223368
0.2202911147403728
0.2256489268028465
0.2304884939241845
0.2387666667698411
0.2534026764791287
0.2756951537487535
0.2861594197770283
0.2605860980592959
0.2041861672933814
0.1300061037250801
0.0739559738926571
0.1617746190209107
0.1557842305888574
0.163000668880176
0.1747441593456747
0.1881374975324495
0.1996817416873387
0.2087880859029523
0.215172600632654
0.220800130670054
0.2260944817324787
0.2311568942712734
0.2394973367504782
0.2541886355921722
0.276622020365554
0.2853010169827858
0.258731597301168
0.2033070845847325
0.1296500622317725
0.0738126802576011
0.1495975656630139
0.1454050932265979
0.138369564965631
0.1331070331012411
0.1317760313185078
0.1315009149662291
0.1318251094259566
0.1324598321358238
0.1330368559835698
0.1338067656827385
0.1342726188938323
0.1345248609221941
0.1341826481632657
0.1326487121145323
0.1307358143828523
0.1288528486701287
0.127008815725111
0.1250750801620277
0.1234071535189514
0.1538256472395601
0.1508210664652509
0.1451733652390551
0.1430329570707906
0.1437656262331466
0.1452060472784786
0.1473716478781915
0.1491898301737537
0.1500105923950985
0.150661520182732
0.1510289283081806
0.1512129152463996
0.151168269072664
0.1500458782599733
0.1488833720380465
0.1484917300363738
0.1482077303179154
0.1478378510871087
0.1473558057894977
0.1591991687536627
0.1576992463155563
0.1546440844232501
0.1559804795790228
0.1587726707669763
0.1616929392406163
0.1646928006142359
0.1671573157921467
0.1686105410861301
0.1696979386952452
0.1700791969465721
0.1697303572585768
0.1691794061933226
0.1690513579172545
0.1691270159834122
0.1694294903509406
0.1693685839869222
0.1684390202800313
0.1671095081983702
0.1657240827180182
0.1655356185449453
0.1647929212692132
0.1679944203547219
0.1710768014293485
0.174193433540213
0.1762791912392951
0.177492335641038
0.1777202006477063
0.1765935506704952
0.1751569652131273
0.1737196855507297
0.1729871353271379
0.1723176497185435
0.171348119274004
0.1705427436138794
0.1693412617320554
0.1681200279299831
0.1670892585363168
0.1717288949814704
0.1717108988681992
0.1716357168693181
0.1749547164357779
0.1771761201734847
0.178625505458693
0.1786629173931312
0.177521122598086
0.1762111716293862
0.1741657442999342
0.1721300251214204
0.1709775754355153
0.1709928420698134
0.1710439381270603
0.1712051517237601
0.1717216675726099
0.1723805621898622
0.1732841216651125
0.1739829108604062
0.1760277684131452
0.1752067358417154
0.1746476309466252
0.1766173386246191
0.1773332654826733
0.1767698886708527
0.1750488708995744
0.1736187123519743
0.1726893412249079
0.1716774249924167
0.1713488999956882
0.1725136671873557
0.1748368134270159
0.1773051430434231
0.1799629096157703
0.182517811208257
0.1843579883234204
0.1858160377820444
0.1867492979422052
0.1792302761830387
0.1766989054284984
0.1746202402861967
0.1753043104044215
0.1745928981274786
0.1726663307900547
0.1712640070660378
0.1713122888359189
0.1721482315924825
0.1736017942207174
0.1764039976260315
0.1809437142893236
0.1857998437547548
0.1901304434592886
0.1934800198238028
0.1958539811953247
0.197207729587776
0.1977626049114392
0.1972533058159645
0.1803017709345413
0.1759197631342519
0.1726684805230532
0.1722907797723132
0.1711293612446022
0.1698681734190812
0.1706092807816113
0.1726026923206011
0.175697076832421
0.1806823997052098
0.1870101964767646
0.1937478663601546
0.198913018140706
0.2028921571446357
0.205279593838097
0.2063321037516587
0.2065202394469469
0.2056039399642076
0.2032612177019868
0.1806746259623295
0.1747386951833262
0.1702482918996526
0.1694939646562068
0.1688063869535528
0.1696310637521883
0.1729349410051843
0.1779272471746744
0.1840173054041327
0.1911756482094938
0.1990518685522762
0.2059856841896195
0.2102200544665278
0.2127083343308725
0.2135467429112244
0.2129050075965234
0.2115952707822994
0.2091773360496238
0.2054485583883222
0.1801291857596925
0.1728065170449878
0.1684057532641458
0.1680984105138159
0.1686284159248306
0.1719670584492951
0.1776946985519556
0.1854254176983633
0.1939470410538754
0.202450010868235
0.2101485555065667
0.2152870018100052
0.2179649586574263
0.2191768273168174
0.2185016499747793
0.2163537092989799
0.2136546247355317
0.2099616350741475
0.2050901626056294
0.1780040260505736
0.1704739060020267
0.1671195997217432
0.1680126118611848
0.1709027336510628
0.1764946600602741
0.1839935058347017
0.1934248656454168
0.2031652892364309
0.2117104044982214
0.2183076005608709
0.2222013829167028
0.2231794680621372
0.2225135381681425
0.220606570201875
0.2177757577343164
0.2139153704326067
0.2092577545660278
0.2039366229949467
0.1766704347970565
0.1693111256237214
0.1666874489559135
0.1690682949800971
0.1739456009506217
0.181554810942098
0.1908356592604875
0.2015911382296281
0.2116518343470236
0.2192625538199072
0.2244652400743834
0.2267604627728195
0.2262514865890944
0.2241891881243495
0.2211897737068829
0.2179832177870041
0.2134180235778973
0.2080650212809512
0.2028932870689512
0.1760260754906548
0.1685916702199829
0.1672881165277662
0.1711548455594111
0.177554186532652
0.1869978658863878
0.1976258510136616
0.2086439644371844
0.2188511809709719
0.225537668340064
0.2287586456414776
0.2294555911682769
0.2277284087905583
0.2250971588999032
0.221531136896463
0.2172756113942168
0.2126982876582849
0.2074823920206371
0.2023093130658436
0.1752450648569524
0.1683410835730175
0.1686832958745948
0.1736208367763366
0.1816249865119038
0.1920774801370939
0.2036582168422867
0.2151870843556405
0.2247461044658866
0.229792671318544
0.2312884678345304
0.2307048654693699
0.2280826779031936
0.2249374453624733
0.2210897239383826
0.2164644814471843
0.2120292434778687
0.2075230747571748
0.2026935223328068
0.1758689965933121
0.1688075581766052
0.1698071001897445
0.1760017999960018
0.1855767165064106
0.1967662917595592
0.2090446710542732
0.2205472242003023
0.2284787379914589
0.2321114102622709
0.2329532760450423
0.2312205127931071
0.2279949762617682
0.2244501346535344
0.2204334808133491
0.2160748265665281
0.2121805377724469
0.2084152151957549
0.204517431817597
0.1768093181825147
0.169320783092169
0.1712185327191443
0.1787352467243189
0.1893632918704396
0.2016796126295583
0.2138406092025722
0.2246388318457517
0.2312182200116293
0.2338729662568091
0.2337295900522097
0.2311325769639669
0.2279952238180641
0.224165110516975
0.2202973752416456
0.2165750400644553
0.2131313214365632
0.2103975978616631
0.2091064385688162
0.1763223588400526
0.1690619001502142
0.1731366018817304
0.181279479505324
0.192937421067625
0.2056532923498502
0.2174977863398979
0.2279403414593313
0.233418028253619
0.2352140758526167
0.2339305870331166
0.231296301623349
0.22807902436191
0.2240234657393543
0.2204362533114248
0.2176151958107449
0.2150676644153444
0.21452682889214
0.2165385615660974
0.1751957245840043
0.1687181175962547
0.174994544715431
0.1835858847025045
0.1958148229691538
0.2087968223763722
0.2206749473854784
0.2299417167620006
0.234275238656895
0.2354012040502279
0.2336126935076416
0.2309381534260877
0.2274736634775057
0.2240981538110062
0.2212574056054751
0.2193963304696203
0.2186328857790249
0.2216510711535583
0.2246090932160719
0.1745358907741825
0.1693390725803576
0.1760884568019207
0.1857502578280936
0.1980385339720288
0.2108962577512078
0.2230342716169557
0.2313361467490416
0.2346628892321407
0.2350956611313449
0.2332120297390278
0.230269420258344
0.2272199081263169
0.2247178010606697
0.22250345034965
0.2220603524345787
0.2241049391201634
0.2302729119153671
0.2294444006887507
0.1744584360948841
0.1702858313980475
0.176794762441901
0.1872476270190689
0.1999184534740074
0.2126346476882782
0.22418432704292
0.2316686366980723
0.2348107305891639
0.2350405676703357
0.2330185199402071
0.2303377881307414
0.2278401707999605
0.2256120691319387
0.2241391507877284
0.2256615527468773
0.2316718225113571
0.2381492443625406
0.2297645610476326
0.1750154736678838
0.1706324610750103
0.1775544765192135
0.1884672877866225
0.2014868142748952
0.2140566162788227
0.2247465136980367
0.2317746080878367
0.2347069205395074
0.2347019510134876
0.2325477337900056
0.2300551258784239
0.2282817778727573
0.2270368410283153
0.2274392734238158
0.2314457969443135
0.2407416366975942
0.2458353813338424
0.2221034048950256
0.1753094793937482
0.1705544319958536
0.178984358213262
0.1900454190597272
0.2024183886820477
0.2148307128583251
0.2249955801786364
0.2317420087381844
0.2341289719621822
0.2341222407702158
0.2322551338788538
0.2300090855292107
0.2287809534438276
0.2289640016931352
0.231342337113063
0.2385932128876523
0.2506507612496744
0.2537650639813587
0.2015250263467889
0.1755982920552204
0.170765969108039
0.1801212800120303
0.1912303929045455
0.2027801244445012
0.2151740571913964
0.2251488697443813
0.2309487579991574
0.2334500563551433
0.2335988137802336
0.2321285433585246
0.2306411357760732
0.2298834467734769
0.2311479702684203
0.2362117678590592
0.2475579342282962
0.2595979439673446
0.2480369965774428
0.1785204610178357
0.1753161255854714
0.1706245157502651
0.1799413852109506
0.1914219145574601
0.2032256473976338
0.2151452674406951
0.2246628151033566
0.2299454397626401
0.2327317435842384
0.2332068880022291
0.2321859884447005
0.2313947469609771
0.231450422392877
0.2339184694351171
0.2422059606757271
0.2565737110665043
0.2663123678510396
0.2353388883550651
0.1601785472574886
0.1744768279584471
0.169883846188965
0.1796833574612289
0.1913252809180777
0.2037662112011543
0.2152940896830525
0.2240017220662123
0.2289274606819094
0.2319510661016701
0.233128219707187
0.2328643003100765
0.232299611592082
0.2331336827104388
0.2377902815865126
0.2489691166975435
0.263807402716729
0.2690268382486456
0.2264759309805259
0.1425630932955286
0.1740338129327182
0.1692198698182904
0.1794252785687848
0.1913547681221626
0.2038461605384805
0.2147268344858671
0.2231579364094519
0.2285301631976695
0.2315846737660603
0.2328737071355157
0.2334688863708619
0.2331837146280989
0.2347884998861919
0.2418048136365264
0.2552499877696712
0.2700800495600005
0.2631538392592827
0.2094009798837617
0.1262137315856815
0.1737426139459287
0.1686763848324999
0.1789470079585101
0.1909640692464027
0.2034416255158065
0.2137428098485852
0.2221873051652764
0.2284251904234764
0.231580562030527
0.2325990826175661
0.2335172355186412
0.2341122451286652
0.2369475858693519
0.2454781689764235
0.2601590911571501
0.2752879985399945
0.2588910371330659
0.1937500130675175
0.1129677666855408
0.1733018008434328
0.1680279270830617
0.178350276557077
0.1903474540015559
0.2027248722298125
0.2134360548657248
0.2218545080335803
0.2280666642766392
0.2313222341725901
0.2322432638787114
0.2332877616295591
0.2346972969270375
0.2391561314406492
0.2494322090626434
0.2657211476818806
0.2808174530969997
0.2599531801685228
0.1862005428314569
0.1049058448894226
0.1731117279520262
0.1678765687067159
0.1781594509056363
0.1899580119938208
0.2019404156700216
0.2131873923279022
0.221683034605219
0.2276788919463658
0.2305305617691039
0.231449866618478
0.2328083305717365
0.2350885304093445
0.2411942711161283
0.2530010359185203
0.2706123407510097
0.2814549401223768
0.2545449577238249
0.1788344896556127
0.0998889123943821
0.1724511320475328
0.1674768495585384
0.1774797244736281
0.1893773142861704
0.2013737659734423
0.2125562158290484
0.2211071860084052
0.2270755933005023
0.2296294970054463
0.2305053099057293
0.2324639253386665
0.2361385956100848
0.2436061246928469
0.2562996444451191
0.2744702213613108
0.2767659912041795
0.2405541677308259
0.1674346412516094
0.0949068466999503
0.1713568502511687
0.1665858738602584
0.1763067875109275
0.1883532322150642
0.2002940840277865
0.211256873023139
0.2202242309856279
0.2264426272148604
0.229224651343515
0.2301373263202336
0.2325866017647634
0.2370237572748041
0.2450478398464589
0.2592713634787164
0.2785961631681719
0.2733962214169926
0.2290270554306807
0.1571958845569749
0.0902982812101783
0.1707013662441255
0.1657462912526131
0.1755761187679046
0.1871671967922008
0.1991308884320533
0.2100678043114612
0.2191521545167032
0.2254713232050646
0.2287785323860166
0.2303689617540526
0.2331122564489914
0.2376188099764696
0.2459463038940942
0.2619549807601113
0.2823306211959984
0.2732261866384282
0.2248915320719943
0.1509706206242319
0.0862565623383165
0.1700342033219871
0.1645464326292569
0.174779599437586
0.186138064827633
0.1982577011808053
0.2092306043184742
0.2179249297455637
0.224424755352349
0.2283490465116307
0.2303391605915799
0.2332163197801889
0.238326190946281
0.247486457805735
0.2645603065047979
0.2849498368250012
0.2745900741243197
0.2226853402373215
0.1461454310398427
0.0838523441058384
0.1691511277956418
0.1635139708859274
0.1737824176728938
0.1853624835499855
0.1975212562749593
0.2088046748778647
0.2172568828607105
0.223521287529823
0.2276599073967585
0.2301078034167012
0.2329929377741114
0.2389168075838451
0.248975710220086
0.2666583578895348
0.2864364363535108
0.274941685887252
0.2212366668917611
0.1425474055645474
0.0815063259795633
0.1683445382776706
0.1627554902899072
0.1728927691327174
0.1846757948658313
0.1968700784435092
0.2082506271747835
0.2168550315921842
0.2228219313699109
0.2267797550194075
0.2301118732395861
0.2332802821638528
0.2393521323622476
0.2496439392847748
0.2681925868035352
0.2878703998943515
0.2750437557137442
0.2200124399779438
0.1397996550294723
0.0792238776497935
0.1678758468966155
0.1618236944895659
0.1717427458039125
0.1838975201562132
0.1960129768102069
0.2072942053982641
0.2161849925681048
0.2219731569596786
0.2262012789083435
0.2300297160474818
0.233464263639651
0.2395319840658652
0.2498887891124389
0.2696855123671599
0.2899853045457746
0.2753144351139646
0.2176765174913827
0.1377154726629774
0.0782504961498295
0.1676164945066097
0.1609426636910063
0.1703589996188152
0.1828076440174318
0.1946446333483779
0.2062884697960026
0.215317250831419
0.2208371805357015
0.2254542784804252
0.2297513075125219
0.2334495445363349
0.2400555237479831
0.251052843934435
0.2711614734587014
0.2909531506466376
0.275236272995189
0.216307147482632
0.1365201527244132
0.0778400952677867
0.1669805002584633