/*--------------------------------*- C++ -*----------------------------------*\
| =========                 |                                                 |
| \\      /  F ield         | OpenFOAM: The Open Source CFD Toolbox           |
|  \\    /   O peration     | Version:  2112                                  |
|   \\  /    A nd           | Website:  www.openfoam.com                      |
|    \\/     M anipulation  |                                                 |
\*---------------------------------------------------------------------------*/
FoamFile
{
    version     2.0;
    format      ascii;
    arch        "LSB;label=32;scalar=64";
    class       volSymmTensorField;
    location    "0.0013";
    object      tauij_LES;
}
// * * * * * * * * * * * * * * * * * * * * * * * * * * * * * * * * * * * * * // 
 
dimensions      [0 2 -2 0 0 0 0];
 
internalField   nonuniform List<symmTensor> 
13597
(
( 0.1486282061990017 -0.0789156215534858 -0.0270185459528468 0.0923447130989483 0.0168253142302892 0.1106701921141744 )
( 0.1521223810309412 -0.081032014472665 -0.0256091543221363 0.0921141182337732 0.0168977858574288 0.1172901999063339 )
( 0.1573617800591855 -0.0849334479761409 -0.0218166976927374 0.0938127826482742 0.0166755753886329 0.1326326935978149 )
( 0.1619231147487894 -0.0876037815218199 -0.0158568839710444 0.0997263071263898 0.0163208916629456 0.1563216957469065 )
( 0.1648014468774344 -0.0876806717944085 -0.0104090555116279 0.1065482091705762 0.0159491180327886 0.1774660117439564 )
( 0.1668053034270283 -0.0861994251096958 -0.0056962575691572 0.1121861330822968 0.0160690701703293 0.1933650990750946 )
( 0.1675681412125309 -0.0836576101912516 -0.001352857043134 0.1176280676287529 0.0162715594416584 0.2068453496430289 )
( 0.167884034914347 -0.0801982217321555 0.0032312058318235 0.1226541098081068 0.0166844770656947 0.2180972050695 )
( 0.1670674886663145 -0.0760031445206321 0.0075147617521599 0.1270257000653472 0.0176840653052894 0.2266322456249027 )
( 0.1655971645559079 -0.0712199315607348 0.0114726281733113 0.1298029143790222 0.0186249947183677 0.2319406043301799 )
( 0.1640267210422605 -0.0654789801792985 0.0159639615491638 0.1311634085481468 0.0205581229012249 0.2346119461947991 )
( 0.1618480393962323 -0.0597489250161263 0.0194598120339112 0.1311543895705013 0.0233710842775957 0.2347896633302256 )
( 0.1591877623800611 -0.0540367376479765 0.0224447144079842 0.1289858563278565 0.0256808535724172 0.2315377136157342 )
( 0.1559159899944484 -0.0480676694310334 0.0254928074651697 0.1260144395115713 0.0285339760515983 0.2251543988616991 )
( 0.1527432178414796 -0.0427866534084172 0.0279074722549567 0.1229137238508017 0.0323413865061308 0.2159758449470751 )
( 0.149736321695042 -0.0377215046818309 0.0302057187551912 0.1189504432394954 0.0354694489171214 0.2051417278464759 )
( 0.1460721707004647 -0.0322990044864515 0.0320713386644357 0.1134989254531726 0.0374384233647932 0.1938813847263561 )
( 0.142201070229377 -0.027158714039681 0.0330739408402721 0.1069440818552165 0.0386377910164217 0.1813098131977424 )
( 0.1381802082024286 -0.0226295211749043 0.0337941776294107 0.1009737610200208 0.0396454684415844 0.1686937940486953 )
( 0.1551982837097115 -0.0667311615465208 -0.0176348554505107 0.0852846453224662 0.0219003551903864 0.126588203512041 )
( 0.1593346099882589 -0.0675014307055197 -0.0127884633167614 0.0849838687336269 0.0225686488283716 0.1383870665278874 )
( 0.1645867955189908 -0.0705834556172947 -0.0042511783330347 0.0892870965992504 0.0229863516109014 0.1623411159832375 )
( 0.1703731696107052 -0.0724608084033054 0.0054579262171471 0.1005032306131901 0.0236833345859358 0.1931027290917747 )
( 0.1742540050888906 -0.0715190507390739 0.0129766450200093 0.1099645447048018 0.0246719866781789 0.2143071197239749 )
( 0.1764228213602303 -0.0688604408584897 0.0196778099780594 0.1175159537526079 0.0255924981528282 0.2301403456932585 )
( 0.1780685642744795 -0.0660781676715063 0.0251055332414731 0.1246548167565264 0.0267403749426208 0.2412633873724683 )
( 0.1797466185121479 -0.0631592144811416 0.0300316750583146 0.1310307611443504 0.028637245990266 0.2475761194595671 )
( 0.1806211361714887 -0.0593066243353831 0.0344955626218805 0.1353699815341681 0.0311000371235779 0.2493340866133633 )
( 0.1807606885768774 -0.0554679223092228 0.0379654337530537 0.136996361049742 0.0329385474430669 0.2462709534398326 )
( 0.1805065735280662 -0.0515155106603026 0.0407625437580198 0.1366761335880189 0.0353903977693705 0.237808046010519 )
( 0.178702663947784 -0.0473119877256029 0.0423810353328765 0.1345064412159825 0.0383629072706735 0.2245971419069848 )
( 0.1765699720523546 -0.0432828717520408 0.0423142731340514 0.1299805815283119 0.0405912482261457 0.2076305149648148 )
( 0.1744007189312752 -0.0393480634707 0.0414691517219549 0.1245465938804488 0.0421783256148846 0.1885744953516085 )
( 0.1717669651678847 -0.0357401598515477 0.0398690930377729 0.1192723320151317 0.0430928924035868 0.1694030459762397 )
( 0.1692014922141704 -0.0325671642743971 0.0372942113047634 0.1140102739239691 0.0427942572039931 0.1512172247507493 )
( 0.1662753461083486 -0.0294650914962177 0.0343619769797741 0.1084202729212558 0.0411602997789884 0.1349904759414059 )
( 0.1633400340018885 -0.0265333611178987 0.0304968218612285 0.1021668444623527 0.0385312989515211 0.11987397346664 )
( 0.1608895511609437 -0.0239992942383821 0.0263024414189111 0.0965773365186747 0.0355165143968891 0.1072225169649736 )
( 0.1560284493665441 -0.051893722419109 -0.0018238738437899 0.0778243974790697 0.0262856230929982 0.145891388437685 )
( 0.1572309351524366 -0.0506487929253869 0.0067520035691792 0.077754842712679 0.0276444338978074 0.1631130744862904 )
( 0.1587011011645065 -0.0514558243437401 0.0178415767368741 0.0844289531845556 0.0284401687744993 0.1931185575023815 )
( 0.1603058079571129 -0.0503847216085293 0.0283835910939037 0.0974188699055129 0.0291598433830817 0.2246604619690426 )
( 0.1608125616236519 -0.0469146528982942 0.0357299726014512 0.1062558797048546 0.0303722439546147 0.2417431693668442 )
( 0.1608664882147876 -0.0428162827641172 0.0409408456375228 0.1133311847609832 0.0318138710030969 0.2518172243341143 )
( 0.1603719103507709 -0.0394765489130312 0.0439124704528997 0.1185543928801162 0.032648484215835 0.2539996028939084 )
( 0.1594253286769883 -0.0363923352300189 0.0456748814663244 0.1215935382730804 0.0336361030330467 0.2492741457975037 )
( 0.1582736352714163 -0.0333915593084861 0.0457840211262356 0.1222472060171993 0.0354991283789113 0.2385121356481012 )
( 0.1567234130980211 -0.0307644669476202 0.0442653965784135 0.1207429155317476 0.0363497412165079 0.221977854337375 )
( 0.1548127728620645 -0.0283270768640688 0.0411439426604272 0.1173348638564981 0.0371399146189899 0.2003082485787054 )
( 0.1528865573316639 -0.0258980321912925 0.0364522125909558 0.1124102653012935 0.0376797354922687 0.1758082671990934 )
( 0.1510097096123324 -0.0234673078258102 0.0301356165109102 0.1064554000262951 0.0368248577396847 0.1510891131059003 )
( 0.1486638720109165 -0.0214494834444949 0.0232481310463944 0.1007267124154345 0.0346269427217604 0.1289600708995805 )
( 0.1463675242363678 -0.0197387757282475 0.0167785264162756 0.0955833724766712 0.031659460082403 0.1112301923850236 )
( 0.1442704762311155 -0.0181945677292745 0.0105654481716933 0.0911405260581132 0.0284405584262131 0.0975541572084241 )
( 0.1418715445542556 -0.0167082254813887 0.0047749990250948 0.0870047436699471 0.0247545042865599 0.0871109352761626 )
( 0.1388897912700173 -0.0151341655229978 -0.0010092253312059 0.0826664641764561 0.0205695471830998 0.0791190700634212 )
( 0.136352063923258 -0.0138573743390741 -0.0064211460248624 0.0786048331558097 0.0161818252278019 0.0735688318264521 )
( 0.1461112077603321 -0.0361887613339699 0.0175826104392208 0.0707034149461617 0.0294177319203832 0.1677827363166385 )
( 0.1427584275943382 -0.0329051525558689 0.0279675193097568 0.071549166100344 0.0313575447101703 0.1890863274246487 )
( 0.13951175006015 -0.031115659443325 0.0375666322494366 0.0792270286817133 0.0321109284286149 0.2183756119997045 )
( 0.1365861575076484 -0.0269952342557523 0.0449030790845273 0.0908258141205883 0.0316997344728055 0.2429918116528742 )
( 0.1331964940790866 -0.0215949090197397 0.0485484241212149 0.0970727303378644 0.0312822409058008 0.2517835907507075 )
( 0.1304418098793537 -0.0171032844909214 0.048890601437692 0.1012590584289082 0.0313260848375861 0.2509913506160983 )
( 0.1274846268494396 -0.0137492969646777 0.0464892856719405 0.1027646619430916 0.0314112995899912 0.2404061316401642 )
( 0.1249366542333378 -0.0113894669044197 0.0423465635537316 0.1022337852485695 0.0310320590005023 0.2236047122896301 )
( 0.123168320504001 -0.0100433457393979 0.0367479192945994 0.1002733072318349 0.0310374454604227 0.2027239104809699 )
( 0.1213334994441545 -0.0092783676620515 0.0301082603228479 0.0971342352239512 0.0307191306437097 0.1784091978067843 )
( 0.1191063674347681 -0.0086911239806073 0.0221418229845875 0.0925028279781149 0.0296645733287575 0.1513893682137873 )
( 0.1179176698975532 -0.0086015470600037 0.0137297762415554 0.087793029850549 0.0276306039333247 0.1268975975813464 )
( 0.116509950509602 -0.0083658516115775 0.0059012643858131 0.0830181306428263 0.0241065937782209 0.1066644207829654 )
( 0.11446047831753 -0.00803913515736 -0.0015672264911975 0.0787226153233663 0.0200183241500877 0.0916927148035656 )
( 0.1125394811374296 -0.0078022379779191 -0.0079899257864743 0.0753752271214645 0.0160799385614334 0.082707935554949 )
( 0.1102118504101068 -0.0072917564577407 -0.012859343607838 0.0725429872090665 0.0121690657314759 0.0777772307534195 )
( 0.1076340049644068 -0.0067565617552017 -0.0171110251469163 0.0698978649338842 0.0084242705957984 0.0754808006215536 )
( 0.1045970800654255 -0.0062103316459372 -0.0211201727637799 0.0672267532055412 0.0045840677201066 0.0750405290154951 )
( 0.1015309447267621 -0.0056805749855146 -0.02488474739958 0.0645847807123646 0.0005185379078553 0.0764018497066604 )
( 0.1290487324791527 -0.0212426095044723 0.0361388365372436 0.065105529726601 0.0320225917752057 0.1891291270395324 )
( 0.1212552305593864 -0.0162700907690279 0.0447246724544145 0.0662886763986071 0.0330729754003368 0.2100039833188947 )
( 0.1152475027038859 -0.0119079302278427 0.0496740645756568 0.0736485240072282 0.0324190611709009 0.2331307496436824 )
( 0.1101078370866759 -0.0060451192643588 0.050876093629783 0.0823371401748441 0.0298180944416834 0.2468470772576997 )
( 0.1053678456716662 -0.0004000012363888 0.0484916955428212 0.085567370240012 0.0276598280997618 0.244054940746312 )
( 0.1019727453644337 0.0030780525766025 0.0434872096032817 0.0868676204216485 0.0260282399935636 0.2319692038793364 )
( 0.0986511244098448 0.0049489628445166 0.0361929212735323 0.0858120196111881 0.0250784473977956 0.2115872427913365 )
( 0.0961908837066643 0.005848755801511 0.028038533496625 0.0832916022254694 0.0241951201816201 0.187301197552918 )
( 0.0947452897047983 0.0056567404357099 0.020289395774036 0.0798635912279149 0.0230451359498031 0.1628892048899465 )
( 0.0934319969593986 0.0043634515403011 0.0124367631542736 0.0762156383249959 0.0221340139057535 0.1386043420814792 )
( 0.0920675531062712 0.0028651806825871 0.0046204341755628 0.0726960622284586 0.0200139255980499 0.1169225738790778 )
( 0.0909604239990844 0.0015361881553878 -0.0025107722634846 0.0697049762994308 0.0163813402255905 0.1013730167971139 )
( 0.089577845126436 0.0003807048195608 -0.0088527307674697 0.0670048027528763 0.0118437859163478 0.0919634396141273 )
( 0.0876043410907188 -0.0003496601515307 -0.0144480648679632 0.0648185348825343 0.007201727226938 0.0882665034894326 )
( 0.0852724719273151 -0.0007300423159937 -0.0189262898182228 0.0630497707308728 0.0029454625729836 0.0889472645880139 )
( 0.0826864813336774 -0.0008945816425234 -0.0223826121806762 0.0615144762946934 -0.0011691226433012 0.0920683067850876 )
( 0.0801695363672553 -0.0010520536926845 -0.0254634774560501 0.0601432769490681 -0.0049532052810504 0.0961491225570603 )
( 0.0780012152294657 -0.0011495003410525 -0.0282885791594576 0.058734583111631 -0.0086464843068727 0.1008853867844191 )
( 0.0759589076443823 -0.00108605166499 -0.0310576425806236 0.0572254345385918 -0.0125377251678377 0.1064624384492972 )
( 0.1094038961354276 -0.0077202815034511 0.0490607843523638 0.0603559924236927 0.0330236438790536 0.2059709332774557 )
( 0.0995089921751824 -0.0014528022347169 0.0529059600543009 0.0611857202221191 0.0320213685415097 0.2219583607081246 )
( 0.0926886103646453 0.0050414559651542 0.0520411926298533 0.067546210801051 0.0289799633805885 0.2352500675469733 )
( 0.0883163552055175 0.0109943285104538 0.0471667866490798 0.0733881931369601 0.0243128387330707 0.2366972595639441 )
( 0.0847873577033852 0.0150185281137739 0.0398079970883841 0.0739445776921493 0.0212287808535818 0.2235406605500816 )
( 0.0821443795181853 0.0167932067295818 0.031900280876245 0.073027865774084 0.0193696785158522 0.2034915255261655 )
( 0.0799736731796256 0.0169262250689628 0.0234769581419595 0.0706408954142735 0.0182386899969215 0.1798270992171827 )
( 0.0785490556553856 0.0159288304831697 0.0153186290262866 0.067287057995949 0.0175818884438701 0.15599905833561 )
( 0.0769508736633841 0.0141218406335587 0.0084230842376697 0.0636661375878388 0.0160789926923819 0.1349918102215116 )
( 0.0756727090522315 0.0114809553898699 0.0019486059693071 0.0609473923645602 0.0140854957636139 0.1180816829851495 )
( 0.0748762020870984 0.008656016856921 -0.0038945863435775 0.0595150573164928 0.010985130634462 0.1079030016884456 )
( 0.07337258538433 0.0061814433777188 -0.0090114033899383 0.0585575671433176 0.0063947954092932 0.1038632005409481 )
( 0.0722110645005297 0.0041144126992041 -0.0137814998813671 0.057835445067833 0.0010703008706431 0.1054650697095123 )
( 0.0711004671298871 0.0026028795178554 -0.0179652338019144 0.0573792766777871 -0.0038640190878069 0.1103677365590812 )
( 0.0692152212409506 0.0017872989591036 -0.0211062722756433 0.0569271513608801 -0.0085616535559452 0.1170494504887264 )
( 0.0676583623884862 0.0013120189870823 -0.023618823158684 0.0565021090062573 -0.0127644198557019 0.1241203618439792 )
( 0.0666372324891317 0.0010134582974209 -0.0259298670949217 0.0561902156671518 -0.0164651326619882 0.1306696126440704 )
( 0.0660546501476903 0.00091571485327 -0.0280111491981387 0.0556738340753616 -0.0199222366725847 0.1365806376528933 )
( 0.0658279976745043 0.0010728613531742 -0.0301924055232203 0.0550224704653946 -0.023267708928866 0.1418725818805772 )
( 0.091492479068453 0.0041883980480161 0.054512386874498 0.0564557464820942 0.0314911596785739 0.2161910230959561 )
( 0.083217200735163 0.0112716699942429 0.0531360977654198 0.0573160602036869 0.0283816117062496 0.2256528310189566 )
( 0.0777138812074762 0.0179189191032289 0.0472529279330291 0.0618231763071678 0.0231321498015722 0.227732781113514 )
( 0.0745455705554584 0.0227763246657964 0.0384531643820774 0.0645496462390033 0.0177951159108902 0.2172896700344168 )
( 0.072547739993981 0.0250032710658794 0.029449834982798 0.0633228164757121 0.0147602634926752 0.1981923970844801 )
( 0.0707091313263474 0.0248334140215768 0.0213571089134205 0.0606298719071727 0.013185532304524 0.1758910002472353 )
( 0.0692596514743275 0.0234418464435229 0.0143437623643103 0.0573846030073497 0.0125488005168743 0.1541221667942956 )
( 0.0680312426939299 0.0206724739674482 0.0084445762921787 0.0545864704322848 0.0120957680176734 0.1366058225893776 )
( 0.0664435333071658 0.0174717032256918 0.0036122023960651 0.0523352223114187 0.0101000802163391 0.1249968702041426 )
( 0.06563072204916 0.0138619176428605 -0.0010310606142411 0.0514129254032563 0.0071211094755987 0.1192848284048415 )
( 0.0650161811862992 0.0100961736718852 -0.0054168809334022 0.0516035402063169 0.0029680162733593 0.1194543790965142 )
( 0.0636729977458148 0.0069373576311298 -0.0093434378635515 0.0522222823739945 -0.0026973019847799 0.1246997751611727 )
( 0.0631915773779197 0.0045063021443636 -0.0129736702266304 0.053250032182681 -0.0085550087729994 0.1328430117480911 )
( 0.063062549256784 0.0028809357515587 -0.0161748658348365 0.0541044632773272 -0.0138187609140255 0.1414179939761311 )
( 0.0625121285776138 0.002052770390323 -0.0187672997068323 0.0546503499543847 -0.0185460049305763 0.1498545448036992 )
( 0.062550388170437 0.0016282882534442 -0.0206324682195717 0.055008252450015 -0.0224427364307147 0.1570524399694123 )
( 0.0627833554714299 0.0016607897537217 -0.0222835965380706 0.0551879494809361 -0.0256295318795231 0.1627479395835668 )
( 0.0631997458918013 0.0020825154065279 -0.0240584647120427 0.0551876343428858 -0.0283896448079566 0.1670147157664531 )
( 0.0640508570496319 0.0028788732683742 -0.0260089237985831 0.0549446877418377 -0.0307229150758901 0.1694285663860437 )
( 0.0808635436377202 0.0135614888259076 0.0536376230214205 0.0539254158151578 0.0283907794827907 0.2194764098889401 )
( 0.0752995270851464 0.0208666888199009 0.0479615272764223 0.0542133009847329 0.0231361874240873 0.2211773230618111 )
( 0.0711010692545665 0.0267797718214714 0.0388160816857232 0.0563976577012501 0.0162723746043054 0.2139576358568994 )
( 0.068700613219199 0.0296434735084371 0.0292859961686323 0.056472013968951 0.0114694144647842 0.1965754524227899 )
( 0.067009236323688 0.0300647325635231 0.0211674504844286 0.0538417277294739 0.009350294400905 0.1754251362764482 )
( 0.0658601381401196 0.0282705751862882 0.0148083377297619 0.0508351778013688 0.0086949022556301 0.1559378129673599 )
( 0.0644832816549755 0.0251557456004001 0.0101372894316863 0.0479898710641517 0.007863548903207 0.1407106594321394 )
( 0.062631937745336 0.0211815279342209 0.006603216983454 0.0461874581033582 0.0071622833389153 0.1322463632369247 )
( 0.060978658875281 0.016955816164214 0.0037099311083925 0.0454602279442875 0.0049342781098133 0.130479989419873 )
( 0.0600616238539038 0.0127212010367485 0.0003686916724267 0.045990977001482 0.0007893818847173 0.1333309884782387 )
( 0.059559656047388 0.0087417182078804 -0.0030348874175871 0.0473921628283886 -0.004622363152576 0.1410289977750738 )
( 0.0592847623553825 0.0056036476008041 -0.0062587040817709 0.0492508535757938 -0.0112049467779084 0.1521482364272524 )
( 0.0596678195885431 0.0034494727750123 -0.0093880147761642 0.0514600494756227 -0.0171098486723503 0.1620574108500722 )
( 0.060304099709376 0.0022526285445357 -0.0120985812730828 0.0532506821297643 -0.0220150850095361 0.1707722808835859 )
( 0.060673017824526 0.0019467668423275 -0.0141588398355463 0.0544006060633519 -0.026107856504612 0.1776606594662979 )
( 0.0615389292392967 0.0020846394648388 -0.0156768369986661 0.0552016514338295 -0.0293567297037729 0.1828725731227384 )
( 0.06242387333812 0.0028098010317219 -0.0173993094731867 0.0556219892965651 -0.0317709846687893 0.1861362195068904 )
( 0.0634325215143099 0.0040467017360195 -0.0195683161918094 0.0558338414043785 -0.0335238893573133 0.1873173068884077 )
( 0.0648555001688506 0.0056797268988852 -0.0219766595680219 0.055570444690618 -0.0347658443511515 0.1863184096800097 )
( 0.0782305165064382 0.020159146236862 0.0485101349068537 0.0523339594612922 0.0240991377565776 0.2160567009574848 )
( 0.0747389490292595 0.0266367351893472 0.0401756630806042 0.05124704602917 0.0171855602174822 0.2101222932196144 )
( 0.0706262934153464 0.0315606813538869 0.030360875442991 0.0510657537299676 0.010049488294127 0.1967130964893915 )
( 0.0681723336948238 0.0327470431808921 0.0221979118488744 0.0496210851169321 0.0063314793035382 0.1780886743158034 )
( 0.0660565661594956 0.0312829971662124 0.0161302451796971 0.0467483526098202 0.0053669387419312 0.1597502036612507 )
( 0.0638991874979293 0.0281492040087425 0.0122150301359098 0.044207359845958 0.0053486540627027 0.1462949324200957 )
( 0.0617893580857588 0.0238379851638692 0.0096664827020597 0.0421196442637449 0.0047258023047605 0.1390865489502824 )
( 0.0599363546689003 0.0190471461936278 0.0078215941430571 0.0414070395717931 0.0034225095624053 0.1386094874324571 )
( 0.0582700631617618 0.0141969782210213 0.0060877391893716 0.0420661861060247 0.0004190293430955 0.1441764121198823 )
( 0.0574530482832123 0.0097665106522991 0.0036928454764537 0.0437170735673718 -0.0048300273526818 0.1538352228644826 )
( 0.0575095625832714 0.0061823937868761 0.0009798982958825 0.0461230894022728 -0.0114959953973491 0.1653059913922625 )
( 0.0581137410100731 0.0037159087263282 -0.0017682625000978 0.0489095768870807 -0.0183510845152279 0.1774204377589534 )
( 0.058960647268391 0.0023324620592711 -0.0046535353306242 0.0514767684198749 -0.0241090324770532 0.1865073881426352 )
( 0.0599327821847193 0.0019942955073494 -0.0074501009064211 0.0537664400795013 -0.028397665181285 0.1933781446823171 )
( 0.0608025368989561 0.0025929416519568 -0.0094266651688735 0.0553180645769877 -0.0315525394248683 0.1980643861600237 )
( 0.0620047171111583 0.0036188257099757 -0.0112135131195516 0.0562899683987856 -0.0340379671275984 0.2005116272356653 )
( 0.0629746570179748 0.0051091418314302 -0.013702221099294 0.0567784388955826 -0.0354573175016629 0.2006828894723389 )
( 0.0641089401362329 0.0071022534972751 -0.016580763192586 0.0568676323565945 -0.0362184074697489 0.1988623473834144 )
( 0.0653462539102781 0.0094948813331314 -0.0197112258716858 0.0563851111802089 -0.0364291859343566 0.1951912007972538 )
( 0.0822880396167171 0.0240701289670207 0.0414526827463266 0.0521920891986982 0.0193090516908112 0.209390181238779 )
( 0.0792944390105814 0.0290187958363277 0.032131835530529 0.0496601148648538 0.011778642598821 0.1973789600744808 )
( 0.0735024000156394 0.0327059152632964 0.0233896944536991 0.0474105089962185 0.00568582606763 0.1807321649466489 )
( 0.0702417735099984 0.0327415920979944 0.0174975337335686 0.0451533885967443 0.0030286122361434 0.1645178828174643 )
( 0.0667485682330906 0.0299010286068898 0.0141244935804264 0.0425203824739622 0.0028639092546741 0.1514731432633656 )
( 0.0630202841228586 0.0255091217211052 0.01237044708376 0.0403119938620683 0.0033602701275223 0.1445192177673469 )
( 0.0603372058244374 0.0204781681155146 0.0117228362699561 0.0388956284721725 0.0027119193744853 0.1444980947907598 )
( 0.0585499905615163 0.0153262804636417 0.0112434187137157 0.0390292135037924 0.0001950661542521 0.1508942481352741 )
( 0.057202104421262 0.010591445546294 0.0102114295522039 0.0404763971056324 -0.0042877210258843 0.1618066852037756 )
( 0.0567453442052052 0.0065975428121766 0.0086495631644372 0.0428758755732139 -0.0107616805707966 0.1749527286317513 )
( 0.0571195024154499 0.0037617444615144 0.0058432422984523 0.0462494479971935 -0.0177476284929711 0.187095084869991 )
( 0.0578560062081765 0.0022291465731483 0.0025655336240134 0.0497394854932846 -0.0240325685451058 0.197350891440385 )
( 0.0588877941547528 0.0019458460841849 -0.0004425948504486 0.0525900594405282 -0.0292701072762275 0.2049812421034014 )
( 0.0601057278341303 0.0026452176494211 -0.0034309837586031 0.0550739685961533 -0.032924421670948 0.2093960664659862 )
( 0.0613603058630222 0.0040266765091572 -0.0060445436060951 0.0567229285577381 -0.0353121084711485 0.2111921110912212 )
( 0.0623851927278572 0.0058880696146007 -0.0086429132078438 0.0577727953134369 -0.0369447661234394 0.2111932820719898 )
( 0.0630770113762562 0.0081685817687704 -0.0116306519006951 0.0583103195629519 -0.0374881482602624 0.2092234791624806 )
( 0.063967979607414 0.010856839107415 -0.0148557171042163 0.0582659301450426 -0.0373082822673774 0.205208220507961 )
( 0.0650679845688548 0.0139920486387141 -0.0184020075948224 0.0575820391411133 -0.0366787334134867 0.1996620167138288 )
( 0.0902784769340409 0.0251406935852879 0.0344703381896345 0.0526537016632554 0.0141607559417337 0.2013417586343937 )
( 0.0854896787512658 0.029003298209839 0.0257527447014513 0.049148695575032 0.0070188793840575 0.1863446981376787 )
( 0.0776962308949944 0.0316550771731206 0.0186069349002668 0.0456789366513984 0.0023596545730737 0.1697795405842275 )
( 0.0723857547347734 0.0303759267325055 0.0154040341698557 0.0429014629542278 0.001170876672451 0.1566489104965833 )
( 0.0668446683071026 0.02634445836669 0.0144807040147858 0.0400943327441284 0.0017655992671984 0.1484602522412308 )
( 0.0627738481850215 0.0214946015123063 0.0144869746510635 0.0381993192659432 0.0021851427446981 0.147968271977879 )
( 0.0601288560272112 0.016349368241073 0.0155306515238408 0.037456995481184 0.0006236109310572 0.1542621888203516 )
( 0.0580427352432802 0.0113784884175953 0.0159279079038593 0.0381856295101464 -0.0029952298734134 0.165905758292638 )
( 0.0567111180623327 0.0071163086339053 0.0151186091921043 0.0403614649266518 -0.0087612540658946 0.1800680175593986 )
( 0.0564232748203029 0.0039064326389966 0.0136466002109601 0.0433599099726103 -0.016186398532422 0.1938070453931701 )
( 0.0568800988027034 0.0020120229732351 0.0104874812464096 0.0472031760743815 -0.0229653098267073 0.2047620017686695 )
( 0.0579207480160403 0.0015396134902263 0.0064339712919855 0.0512056430209006 -0.0287976199296511 0.2126592903228335 )
( 0.0591255238171986 0.002393760967125 0.0028290820516383 0.0543303758617594 -0.0332337876527115 0.2175569867362393 )
( 0.0602273212576585 0.0040062269476126 -0.0006806951381333 0.0568543376452151 -0.0359881710526474 0.2193701643873681 )
( 0.0613211667879381 0.0061056583566616 -0.0040797894633734 0.0585964458439181 -0.0376094450571504 0.2187948916914129 )
( 0.0620884614688138 0.0087553808216875 -0.0071881167350214 0.0597802595427394 -0.0383983504563366 0.2170255508303402 )
( 0.0627883082788902 0.0118119450856196 -0.0103679821544909 0.0604054984809606 -0.0383938039380039 0.213744069893476 )
( 0.0636332828177662 0.0152170041854687 -0.0139599341314337 0.0603372585236394 -0.037603769264982 0.208447713988555 )
( 0.0644976143981484 0.0190014504302064 -0.0180163904973939 0.0595361717886677 -0.0363243032114414 0.2018015022228758 )
( 0.0993285602142168 0.0241044704592907 0.0283909599192104 0.0536246178873749 0.0096084931148049 0.1923471768015122 )
( 0.0917711493733766 0.0274347630716779 0.0211918838854325 0.049858647246057 0.0032074503304864 0.1768720129984098 )
( 0.0808761259949288 0.0288244309293282 0.0163938976953004 0.0454266423180378 2.612193544322261e-05 0.1621091410664007 )
( 0.0736327796450317 0.0263752256820713 0.0154051997901244 0.0420510489485636 0.0002646430958126 0.1528529740147609 )
( 0.0670873024437461 0.0217268342198597 0.0164401254477824 0.0393130047212817 0.0013370761940168 0.1500614557004699 )
( 0.0624221714619954 0.0167309192522257 0.0182064818011386 0.037689937947335 0.001124554539616 0.1547101597836669 )
( 0.059619461533248 0.0119918172326328 0.0198523925339349 0.0373058730103037 -0.0013588296947617 0.1653551230189025 )
( 0.0574448291042531 0.0075551795817192 0.0202870159933405 0.0385030339586807 -0.0060729227519525 0.1801968041080776 )
( 0.0562852939889655 0.0040522040805805 0.0195955228282916 0.0410658701636977 -0.013070726183582 0.1950693851953995 )
( 0.0561277170100726 0.0018099929215225 0.0175580699736304 0.0446045250504028 -0.0205515100042521 0.2079033795598712 )
( 0.0565755382824937 0.0010441136599978 0.0138711135564337 0.0489401602119185 -0.0269523668502467 0.2175021420933021 )
( 0.0578341294969425 0.0016465981322622 0.0095685032103004 0.0531396295503493 -0.0324331044558914 0.2236045415283996 )
( 0.0591727071534652 0.0034568219639663 0.0051107288417279 0.0564927373960759 -0.0361179536792251 0.2258546673599175 )
( 0.060066923482707 0.0059977650273412 0.0008805668671746 0.0592078748092657 -0.0381040296809219 0.2252783427940033 )
( 0.0609058338421071 0.0089778296508177 -0.0028946222408588 0.0611862096672291 -0.0389699968114487 0.2232804414630391 )
( 0.0616469191311011 0.0123134991543374 -0.0062149580668547 0.0625677535892326 -0.0390360031302087 0.2202928844053403 )
( 0.0622311058480094 0.0159109220306039 -0.0097176477574659 0.0632477519736048 -0.0385613811700459 0.2159164776146307 )
( 0.0629879689416158 0.0199341408131758 -0.0137326247304404 0.0631406931950911 -0.0374232247781601 0.2099393415264976 )
( 0.0637463487553252 0.0242855709998077 -0.0179642304531354 0.0621482272678138 -0.035582931064126 0.2026762658445853 )
( 0.107939179577188 0.0213138003271187 0.0235391201911263 0.0560405967031785 0.0063124020575803 0.1840146668129207 )
( 0.0964240026527168 0.0237910547380734 0.017975901491578 0.0514796666632361 0.0014386700132895 0.168682422832235 )
( 0.0821829200631151 0.0247140595716349 0.0156769890161086 0.0463224818147351 -0.0007803701433301 0.1570365417034497 )
( 0.0737904636197441 0.0219077761695579 0.0166171768380441 0.0425672679124483 -3.87129479531525e-05 0.1520225876691131 )
( 0.0669355575205381 0.0173146103249245 0.0193399034903953 0.0397280096178271 0.0008344887607714 0.1540441399053922 )
( 0.0621593728257768 0.0123713927166212 0.0222974449524151 0.0380454337533825 -0.0003580766281343 0.1627959121203636 )
( 0.0591574109749625 0.0080082927337043 0.0240486927124095 0.0378919984202868 -0.0040354529364974 0.1763680480021249 )
( 0.0569162307481643 0.0041494223511625 0.0243558556877625 0.0395995139668262 -0.0097302647947913 0.1929915306727684 )
( 0.0559771311374282 0.0014006450906857 0.0236116030292262 0.0425251785137191 -0.0172351542322826 0.2081467181949303 )
( 0.0560884498636473 0.0002089383444676 0.0212314062831777 0.0461857108916356 -0.0245820640778283 0.2193739571811492 )
( 0.0566405842336332 0.0006567626021019 0.0166154852465945 0.0509988259214112 -0.0305426865022127 0.2269382355734484 )
( 0.0576715447707401 0.0023364923322552 0.0116448108146931 0.0554332009155822 -0.0353041366264482 0.2311839071984165 )
( 0.0588285379121968 0.0050619270257303 0.00674137278694 0.0591933762878506 -0.0383043123169174 0.2317642250369233 )
( 0.0596872055066697 0.008454620643526 0.0019876944870548 0.0622917946487485 -0.0396441477290161 0.22969231307322 )
( 0.0605154512062474 0.0121457376312281 -0.0019526776386396 0.0644178185274812 -0.0400164035896197 0.2266387475227012 )
( 0.061131494681816 0.0160457761806305 -0.0057137970971042 0.0658827658045743 -0.0396189065181918 0.2225264130072012 )
( 0.0615196718628992 0.0201834961141725 -0.0096736996130537 0.0667784933700169 -0.0386434505898514 0.2172959884740067 )