/*--------------------------------*- C++ -*----------------------------------*\
| =========                 |                                                 |
| \\      /  F ield         | OpenFOAM: The Open Source CFD Toolbox           |
|  \\    /   O peration     | Version:  2112                                  |
|   \\  /    A nd           | Website:  www.openfoam.com                      |
|    \\/     M anipulation  |                                                 |
\*---------------------------------------------------------------------------*/
FoamFile
{
    version     2.0;
    format      ascii;
    arch        "LSB;label=32;scalar=64";
    class       volVectorField;
    location    "0.0013";
    object      U_LES;
}
// * * * * * * * * * * * * * * * * * * * * * * * * * * * * * * * * * * * * * // 
 
dimensions      [0 1 -1 0 0 0 0];
 
internalField   nonuniform List<vector> 
13597
(
( 17.359388190379807 1.8581200583621515 -0.0098115193723708 )
( 17.361369669801984 1.9089632837039876 -0.007669337265946 )
( 17.37832289858628 2.011204698985172 -0.0021987269876751 )
( 17.407144981797327 2.141048792176495 0.0058282510674219 )
( 17.432816816632595 2.2492058746071426 0.013676983566539 )
( 17.451263316317426 2.335104564061584 0.021002064672563 )
( 17.473074844147078 2.418090121822344 0.0293175649961425 )
( 17.49748118291103 2.505159182784505 0.0388256034428466 )
( 17.52459392789827 2.590123242431812 0.0488493792436078 )
( 17.55321556357881 2.673175363440293 0.0590266800283222 )
( 17.58261417216049 2.7636143587377453 0.0706332525834157 )
( 17.617645535148664 2.851995622084996 0.0822880888744209 )
( 17.654495322052274 2.9372265060792384 0.0932937081129435 )
( 17.69043967632624 3.02649879096395 0.1052047729354911 )
( 17.726508648066556 3.1177795473273737 0.1175774357958294 )
( 17.764387238107187 3.207834540368 0.1294768623191852 )
( 17.805313950474645 3.2932625263518744 0.1396073190020841 )
( 17.847117059782185 3.378287335617248 0.1494278461683037 )
( 17.889366756279955 3.46679595718759 0.1605524488499768 )
( 17.219567420362225 1.8989319652487056 -0.0159217731103224 )
( 17.202721284283555 1.964324182547493 -0.0137523430601939 )
( 17.196073204955777 2.0984472065252784 -0.0056508960395358 )
( 17.193591265781333 2.2488059960109603 0.0063252194320751 )
( 17.186855489069174 2.361533151381446 0.0170700080130703 )
( 17.17729210091423 2.462364223313992 0.0280136678554012 )
( 17.17216415428408 2.561395165245612 0.0399886915470691 )
( 17.166793155839965 2.6631429468711647 0.0533776657051268 )
( 17.164731625087153 2.763816622902443 0.0676394740582099 )
( 17.163068758503254 2.862117251153498 0.0818592302354815 )
( 17.159633238061655 2.969250689484975 0.0979258900933542 )
( 17.1560280618688 3.0809684104610238 0.1143223720506987 )
( 17.15117346948833 3.191922309631857 0.1308026864364976 )
( 17.149671949877426 3.3056756041726034 0.1471789161922864 )
( 17.150284262210665 3.416767339600126 0.1626169767272548 )
( 17.153265330726743 3.5218585466910737 0.176681143661113 )
( 17.158062631159147 3.618451649062168 0.1884648590485176 )
( 17.162220912724514 3.717000380096788 0.1998967092355172 )
( 17.171764198989734 3.815203602283107 0.2112005162306416 )
( 17.082504234629322 1.926731093885575 -0.0160518736506768 )
( 17.044290854652214 2.002136387877996 -0.0109381563804001 )
( 17.010543541924456 2.154492137103877 0.001511251130535 )
( 16.974816689630448 2.3146829041147616 0.0178493639880948 )
( 16.93610425945923 2.429509947899611 0.0329073354307374 )
( 16.901677820070077 2.539283833909434 0.0484541260228447 )
( 16.87087702750659 2.6497781108349843 0.0643077245161679 )
( 16.83362589552205 2.7592587235328723 0.0809691212154926 )
( 16.79956743858878 2.870871074881668 0.0986309733968838 )
( 16.768342034492527 2.990203369664449 0.1160336444147612 )
( 16.73430037880343 3.114300381998641 0.1335928487088502 )
( 16.6999172822865 3.2460900799891577 0.1512139126377786 )
( 16.667193887983288 3.3814365566349744 0.1683518481140715 )
( 16.639316141265226 3.511237477291229 0.1833089498085387 )
( 16.61634511170952 3.63036580216611 0.1953287438779946 )
( 16.59776103326495 3.7365447270454735 0.2052175015757408 )
( 16.579071701376886 3.8321143451941775 0.2127734823545459 )
( 16.560511093124166 3.928105915990064 0.219049694339483 )
( 16.55086774540459 4.0283693822229525 0.2243569829972337 )
( 16.9480501418761 1.939280535226492 -0.0085211388674639 )
( 16.889438362112323 2.021451825442423 0.0013372994388962 )
( 16.830076773585176 2.1798486118385823 0.0182797562245589 )
( 16.76373634417295 2.3423389263474257 0.0388821614306994 )
( 16.695456199692767 2.4602298601194685 0.0579989305517004 )
( 16.633359243637514 2.573005072530288 0.0762348253507969 )
( 16.56997911879697 2.6905930032612537 0.094648597129592 )
( 16.50326648074865 2.809475333733027 0.1124135487142518 )
( 16.443764878408192 2.9324068934241097 0.1297603038287498 )
( 16.388162775537307 3.064751375127641 0.1458447559315021 )
( 16.32924763668112 3.2047491065299574 0.1605187290728654 )
( 16.276296892214926 3.350962287745321 0.1740525338395309 )
( 16.23028504633065 3.4974842292823998 0.1847028887317524 )
( 16.18475717963854 3.6373621364870754 0.1926120998001764 )
( 16.142341858074403 3.758321009879148 0.1974291275449047 )
( 16.105303402743203 3.8624352236214663 0.1999034163157537 )
( 16.06977658320343 3.957052589646563 0.2004480524918454 )
( 16.032746656246314 4.053001512176565 0.1992995670602159 )
( 15.999952622665992 4.160241841534396 0.1975431451450806 )
( 16.821453355257812 1.9372953402277189 0.0048890375059392 )
( 16.747431799854844 2.0255976046119075 0.0196556650528618 )
( 16.660594976010586 2.1882337991673224 0.0407388165707851 )
( 16.56443423668914 2.346620864256325 0.0631566332629377 )
( 16.472247415537634 2.4636682162779064 0.0832612196304983 )
( 16.38480373566708 2.578756293726415 0.1015940610386357 )
( 16.293746032598122 2.7015901148208066 0.118766739359368 )
( 16.203658068450505 2.827375068189259 0.1346530586691508 )
( 16.122684727212867 2.9563350186116057 0.1482866543109249 )
( 16.04344604743513 3.096071882345898 0.1593678119000264 )
( 15.963062566477245 3.250709588385439 0.1685069367885059 )
( 15.888881692004157 3.410251981425797 0.1747860925697424 )
( 15.81986323030993 3.564892135827036 0.1774430492758175 )
( 15.751897491719111 3.708976692693284 0.1776503009434109 )
( 15.685985155618743 3.8274411262302666 0.1754608506085063 )
( 15.623235941385476 3.9341571008020937 0.1719568968082109 )
( 15.563632371057905 4.036324012941054 0.1672446725628129 )
( 15.5051488206999 4.138859763707306 0.1613493316357808 )
( 15.447071868658108 4.254590572215304 0.154748649581433 )
( 16.705857271731805 1.919477962361852 0.0223004145118004 )
( 16.614701202052114 2.012598345957674 0.0401109732960574 )
( 16.4981023955091 2.180446054902553 0.0637767384383906 )
( 16.376838277787332 2.334271498384661 0.0857579099743544 )
( 16.26491414159411 2.449792107006846 0.1040082043963489 )
( 16.157162163119267 2.567439539626813 0.1203888385223537 )
( 16.048511877737376 2.691218098054521 0.1342110306834755 )
( 15.937587762460486 2.819369020413855 0.1460745026442338 )
( 15.828253293024698 2.9542651926666554 0.1547261147293526 )
( 15.721547729038718 3.107157898501585 0.1600200882513192 )
( 15.6205436839354 3.270962955273917 0.1624077144583409 )
( 15.520401702749178 3.4357954081633246 0.1612006089386376 )
( 15.425050583383786 3.596419616789144 0.1572927872594165 )
( 15.334721568545174 3.741844969586 0.1516758007032444 )
( 15.244074785485514 3.8627169828508494 0.1447882761146851 )
( 15.15996618080192 3.969502022439818 0.1376075937276058 )
( 15.077557295719906 4.072940358809532 0.1300081872078261 )
( 14.994755623364904 4.178074155534506 0.1223348321781413 )
( 14.911977588502738 4.297910517937094 0.1143625741420418 )
( 16.593464751208245 1.8897246537417232 0.0418098904054802 )
( 16.48451177991793 1.9882189367099732 0.0601859986475965 )
( 16.343251853271344 2.1578490445830747 0.0823178634662661 )
( 16.201200932334288 2.304886576161205 0.1023703112880801 )
( 16.071702681655662 2.418279634363007 0.1181084954386644 )
( 15.942061910584057 2.535009286915181 0.131441818690354 )
( 15.812895353514785 2.661125591216727 0.1417935384079029 )
( 15.682169444074166 2.794471037679873 0.1482760675419557 )
( 15.548230003686491 2.9343204063010315 0.1510770709536326 )
( 15.421226606119768 3.0941452173241664 0.1507685852362138 )
( 15.29541195304817 3.264413423415459 0.1472044678443379 )
( 15.166351193228612 3.4354897209028934 0.1407853185819035 )
( 15.046077512173753 3.596262184866966 0.1328934544737653 )
( 14.931390269986144 3.739340062775517 0.1244494861350901 )
( 14.816108101501012 3.864616284868272 0.1156368577042036 )
( 14.70760300575292 3.969692722378809 0.1072353710629137 )
( 14.602528324063323 4.071170751957785 0.0993584465614547 )
( 14.494981580535269 4.18111518058388 0.0913752680249584 )
( 14.387592049486605 4.304740329208391 0.0832313318949737 )
( 16.489098496374098 1.8528588786866864 0.0593758372470265 )
( 16.362217158918668 1.9509580679977552 0.0768665443209491 )
( 16.199230726391857 2.117681684883715 0.0963811928421099 )
( 16.037327698686468 2.259484235343509 0.1133694389756938 )
( 15.888170232657544 2.371970270507572 0.1260122262425932 )
( 15.738442501163014 2.4913303451475213 0.1356241600137754 )
( 15.587210467458316 2.622460074225323 0.1410252710031576 )
( 15.4367660082077 2.7568685926619096 0.1426678906064902 )
( 15.27982643121796 2.899274279136749 0.1408160384526557 )
( 15.129157817071908 3.066192686390275 0.1359599179169936 )
( 14.975529028987092 3.2410279913838616 0.1283618373996857 )
( 14.82191642724708 3.4164402481804346 0.1193936548841106 )
( 14.676698113105036 3.5786279447951745 0.1102561075543777 )
( 14.53318540775948 3.7159170853343686 0.1007341583494536 )
( 14.399044201929762 3.834790682591677 0.0917389463223191 )
( 14.268217752549766 3.940010358936284 0.0833640857659899 )
( 14.139567842803658 4.045264464431871 0.0754938789722898 )
( 14.010251903511946 4.161326020505282 0.0675168074178073 )
( 13.881567569247792 4.290107990860162 0.0595625119539416 )
( 16.3914606058012 1.803515069320435 0.0738793816644389 )
( 16.24529947937452 1.89666606792906 0.0892830144746471 )
( 16.0605101573074 2.0606809211335544 0.1060458766504505 )
( 15.88177415512585 2.1995867868756456 0.1198664582043934 )
( 15.710900325840525 2.315895841559714 0.1289341708598244 )
( 15.54409296891806 2.436739380694698 0.1342543970567017 )
( 15.375502001882673 2.5669237594183496 0.1351085676012857 )
( 15.205557267351091 2.708512040865924 0.133165102270796 )
( 15.028737056047389 2.858342475852868 0.1279507321971243 )
( 14.8451559770308 3.0249666844477736 0.1196783065103574 )
( 14.665295720668755 3.2025401629622943 0.1100964863873229 )
( 14.492182197236165 3.3773928047272888 0.1003144255248286 )
( 14.318944825902468 3.539190722056861 0.0905859234149547 )
( 14.151263694472734 3.675374568437184 0.0810031178070473 )
( 13.999642375136874 3.789654384566257 0.0724472009349745 )
( 13.84785743472761 3.896871362219658 0.064034360048666 )
( 13.696491286593671 4.004057316309056 0.0561522494076495 )
( 13.545296881823436 4.122458139768972 0.0489058178362159 )
( 13.39283198935946 4.256185540755018 0.0418908888945994 )
( 16.293568346749794 1.7502012797638082 0.0853558406533018 )
( 16.127488483693995 1.8453388326979043 0.0983238133163914 )
( 15.92371731761836 2.0050659011280545 0.1117133288260691 )
( 15.730633418025358 2.1363414846753868 0.1216711096336168 )
( 15.543974410475467 2.25674827192888 0.1271648662675735 )
( 15.360354267987464 2.374943605700957 0.1284476816302012 )
( 15.170955040616178 2.499906989013624 0.1257387196789036 )
( 14.975083990027718 2.6437293305498417 0.1203235440979571 )
( 14.779856952092878 2.795368133049734 0.112857246667793 )
( 14.575420242947716 2.9634637738752283 0.1036681697387893 )
( 14.372356003216256 3.148090803707758 0.0935407791569596 )
( 14.176789946185783 3.3263941105414387 0.0836935058361704 )
( 13.98236871812718 3.4832132628898607 0.0740522279653134 )
( 13.7978931610253 3.618794546573443 0.0649448494437651 )
( 13.62382208545738 3.7330673534459806 0.0567588988996914 )
( 13.44881798958873 3.838469501169827 0.0490050093368819 )
( 13.272213450554622 3.9452939919911465 0.0418640781598969 )
( 13.097989894358903 4.064695784605203 0.0349867213847055 )
( 12.924582447445172 4.204646912467816 0.0278172634049974 )
( 16.199904281974515 1.6971438103692114 0.0927336124723965 )
( 16.018818623106075 1.794847787852361 0.1032196713757179 )
( 15.79286969295843 1.9477211922073805 0.1136638345178769 )
( 15.587569489173976 2.0706851345270736 0.1193304181669434 )
( 15.387337791276323 2.188249451387577 0.1212598504557716 )
( 15.183236087063236 2.305352903243211 0.1195607657962459 )
( 14.974660123988636 2.426320730100277 0.114274232119135 )
( 14.76108131494042 2.564415434336158 0.1068874956162309 )
( 14.544372816922728 2.721217900803491 0.0984176849468766 )
( 14.323751287374524 2.89354572735681 0.089417322521597 )
( 14.099873059643528 3.0782195066755613 0.079162834155447 )
( 13.876740467307132 3.26227017835006 0.0692035445913247 )
( 13.66757869935419 3.4163405828769045 0.0603873078882811 )
( 13.466839383683205 3.5504957516775257 0.0519319409853012 )
( 13.266036579956 3.665640523802317 0.0442114199738527 )
( 13.06508771034009 3.7686330509271255 0.0367672423940288 )
( 12.865911750758404 3.8765071721383775 0.0294511666995074 )
( 12.67370241842271 3.999538062914277 0.021972223088905 )
( 12.480000723033104 4.147125680724112 0.0142834298713124 )
( 16.107161976159343 1.6382858101892 0.096697873630399 )
( 15.90992616604641 1.7366456245761093 0.104571762838813 )
( 15.665874796557285 1.8863700210021055 0.1120069311044775 )
( 15.449718849237652 2.0008789476845594 0.1143954234273665 )
( 15.234698596042104 2.1105796933602847 0.1134401741868737 )
( 15.01249070395177 2.227989185044261 0.1092772166833405 )
( 14.791469191520187 2.354473659866676 0.1027867631223509 )
( 14.561307340143376 2.4938005593001984 0.0947982520697944 )
( 14.325607910015998 2.6529564015895923 0.0856057628195711 )
( 14.085830035221171 2.823930452021821 0.076156298032132 )
( 13.842197201995615 3.0039636474871902 0.0665143743713247 )
( 13.59817642066665 3.182559487041218 0.0574092817523114 )
( 13.366323324187476 3.3392642070145597 0.0488715029706496 )
( 13.142441232808306 3.478690552560304 0.0403914969251981 )
( 12.917079814863689 3.592681870389004 0.0325747562175929 )
( 12.697387414212445 3.691594219966246 0.0249188973452305 )
( 12.483937910114282 3.800529356531589 0.0172236830440349 )
( 12.273736082978944 3.93323362517068 0.0096305494790443 )
( 12.059056366794682 4.091088484009041 0.002853442890487 )
( 16.014525170266232 1.5695068896629687 0.0977052375831493 )
( 15.801538443250616 1.6679534053189615 0.1026830120338953 )
( 15.547989539102849 1.817681150966384 0.1070530453394073 )
( 15.318488597262585 1.9309623648786145 0.107673956315855 )
( 15.090851194554988 2.041495641819808 0.1051278956082651 )
( 14.856186230961796 2.159276591667107 0.0992253040773691 )
( 14.62065624253635 2.2862032992015204 0.0916295822999776 )
( 14.371578447557877 2.422648811133587 0.0831086058174439 )
( 14.117212485963105 2.5760380670859 0.073939473017199 )
( 13.862002995331837 2.748645685280684 0.0650431963541784 )
( 13.597154502519931 2.933444507128658 0.0558912418070048 )
( 13.334571499096237 3.107242552282231 0.0470998541094392 )
( 13.077217931736364 3.262326945490404 0.0387477795297883 )
( 12.824870183411049 3.39986382568238 0.0300181329886378 )
( 12.585308954850367 3.507121410033881 0.0216713551122138 )
( 12.356073146014534 3.607048369317708 0.0142687498942286 )
( 12.125738403478517 3.722291221329013 0.007334792130902 )
( 11.892012695794824 3.862146753133587 0.0008936283540384 )
( 11.648018538581413 4.033986510780824 -0.0041569391216985 )
( 15.926150708796424 1.4941995188362749 0.0956463731465197 )
( 15.704681531953776 1.5940638762441075 0.0982822482616037 )
( 15.438191057044822 1.7433299242204294 0.1001454840362847 )
( 15.196133724826842 1.857289588243009 0.0988859155806406 )
( 14.95504914365543 1.9689772917719388 0.0951434880768393 )
( 14.711607244848782 2.082275602451052 0.0887262108937097 )
( 14.462297804711 2.206701885989021 0.0810253649578328 )
( 14.203611027674455 2.342528377658799 0.073019515964035 )
( 13.931148068453409 2.491765589186429 0.0644767325347163 )
( 13.653895777721097 2.6643623772202765 0.0557400878762235 )
( 13.36811708723088 2.851286350996759 0.0463065485229751 )
( 13.081039519058814 3.029158990567153 0.0374314662170922 )
( 12.802394718383388 3.1853891101195715 0.0294369322208037 )
( 12.53499770607254 3.3129145097246435 0.0209338245794459 )
( 12.281760534640831 3.4154790802638915 0.0129797394698005 )
( 12.032517055353496 3.5229685289290256 0.0062095269043365 )
( 11.77977700012637 3.6510609389457342 -9.125204506333995e-05 )
( 11.516402160355447 3.793440126947881 -0.0049970338787957 )
( 11.23373069185044 3.970472938373984 -0.0084735974517933 )
( 15.842334418318153 1.421837159012953 0.0911531347496517 )
( 15.609975394240289 1.5235161064986549 0.0923907921038469 )
( 15.323329127157352 1.6728001209216887 0.0925842614322846 )
( 15.072039181346582 1.780042155849884 0.0892231641859067 )
( 14.824694995896737 1.887803856831722 0.0847817738689442 )
( 14.575127304811543 1.9996928413081416 0.0784652167052232 )
( 14.312494470187682 2.120798220206597 0.0710146195305603 )
( 14.03857853187242 2.257640465892527 0.0637210771167704 )
( 13.7542333428648 2.405446752177859 0.0558929318829025 )
( 13.45804909787459 2.573359713583477 0.0470145718721158 )
( 13.147836852468355 2.760700545493286 0.0373608095827914 )
( 12.835515680105816 2.9380923505844208 0.0289369106808466 )
( 12.535715127769722 3.0957483633910514 0.0211718827219178 )
( 12.258913089172744 3.2197440827505 0.0129667574681821 )
( 11.99281961232979 3.3225278469677058 0.0059731421758949 )
( 11.721645503396616 3.4350792059558595 -0.000135629895396 )
( 11.43807315643529 3.5687795649927865 -0.0054908997696066 )
( 11.138386402585713 3.723092986827045 -0.0091751965535799 )
( 10.83194836800627 3.9209591986172105 -0.0131943834175653 )
( 15.761365891355112 1.353021886734946 0.0845684445773603 )
( 15.518479703897349 1.4548188581070998 0.0839603992509391 )
( 15.219558184611609 1.6013693915415383 0.0833988370786327 )
( 14.959412488580751 1.700015553998623 0.0794160205171462 )
( 14.706648864767075 1.7996180973647846 0.074712799790486 )
( 14.448788978799248 1.917364418761297 0.0692896701810171 )
( 14.17525290348559 2.033631670952055 0.0624377557813752 )
( 13.8834693225206 2.1621668774147795 0.0553003506836603 )
( 13.581974735445971 2.313953140638803 0.0479173331387041 )
( 13.26820967316296 2.4779153485176817 0.0391775639062198 )
( 12.930891938696352 2.668307402142776 0.0300253010236424 )
( 12.59275313323426 2.849557712944335 0.0215137447187467 )
( 12.283668514394416 2.9989069524980256 0.0137781594215279 )
( 12.000387798892469 3.119747186699895 0.0071573159875554 )
( 11.71770610959778 3.227887429581964 0.0007592995151716 )
( 11.421370514767196 3.345045777552234 -0.0051655606764588 )
( 11.103194971553329 3.482205201630978 -0.0085690313407392 )
( 10.770499916599343 3.654753855605353 -0.0131706813424764 )
( 10.466176318016714 3.89717888680281 -0.0209107102238712 )
( 15.684811866334016 1.2859596561306776 0.0769286858983118 )
( 15.429337951228236 1.38355966899166 0.0741671246306933 )
( 15.123645648864368 1.5288478006314643 0.0735952237460343 )
( 14.862055862636776 1.6242231689753048 0.069982445319806 )
( 14.60065747246242 1.719875344384 0.0655560105983718 )
( 14.327690772236544 1.834385796643888 0.0607833047556482 )
( 14.042450380539606 1.9435599239386512 0.0544077283016442 )
( 13.74493526429118 2.069592142929631 0.0478256115455731 )
( 13.425163453059715 2.222624225156599 0.0406178271585609 )
( 13.087375070849692 2.3796944117325705 0.0319113976975836 )
( 12.738315290855342 2.56432132126382 0.0238511557279754 )
( 12.38201027857167 2.7574933879206043 0.0159101919815656 )
( 12.05998368349526 2.90455558243398 0.0088265853032345 )
( 11.760247226747303 3.018395135551101 0.0029834732934846 )
( 11.450625901135034 3.131089014516138 -0.0038312969614017 )
( 11.118957313981442 3.2490460219668518 -0.009333555638709 )
( 10.771697998720894 3.3977586678379343 -0.0135009739303407 )
( 10.43277619558565 3.599443207954036 -0.0211858177148119 )
( 10.148734032822928 3.894255941160729 -0.0300901841635422 )
( 15.608653720496868 1.2190833300003592 0.0681153405885388 )
( 15.34576277378041 1.312459630019234 0.0646847217696077 )
( 15.03402201230002 1.452006084320106 0.0639385584264342 )
( 14.772443633525862 1.5439554819407373 0.0606613044433051 )
( 14.50449055567976 1.6425368266727625 0.0571383961173557 )
( 14.218265039683066 1.7523852291723847 0.0531320751435301 )
( 13.92443210191047 1.8504660092774297 0.0468784994361563 )
( 13.61513181440873 1.9780239766079797 0.0406804596129513 )
( 13.276707437322065 2.1325254154363305 0.0341177385743309 )
( 12.92094766069 2.290847924347659 0.0264314948712375 )
( 12.552695153911593 2.464940529482298 0.0188956070056 )
( 12.182493875356752 2.643727972471082 0.0116068054772692 )
( 11.846467903573192 2.7937845014836413 0.0050775404059784 )
( 11.52138470837449 2.914196366646287 -0.0011472645435861 )
( 11.183192593031947 3.0214358265147943 -0.0076910148367755 )
( 10.82562639720448 3.1428986109580137 -0.0133061668480466 )
( 10.459369312620314 3.309157270456793 -0.0201725500391547 )
( 10.133612323214832 3.556922236549952 -0.0301530173324564 )
( 9.843043449990429 3.908198833569299 -0.0388961615992436 )
( 15.53771021486738 1.1504279173183678 0.0577445680268284 )
( 15.270413787037546 1.2392206586223429 0.0545217705595608 )
( 14.950216962739969 1.369248661533632 0.0539980115903429 )
( 14.687945297863902 1.4614159826038375 0.0517136926867291 )
( 14.413667869293448 1.5577940082161963 0.0491778349217117 )
( 14.114863212728345 1.6656426960342057 0.0459752181598091 )
( 13.820197026781305 1.7641350770307391 0.0404194885853773 )
( 13.496847160891257 1.8815680094653329 0.0343012066048748 )
( 13.137182555705175 2.0335548283867904 0.0280049701090102 )
( 12.761517296325314 2.1968277333175794 0.0213649623723426 )
( 12.36787770154702 2.3697206978323564 0.0142734227138201 )
( 11.992090549162064 2.5350719865362352 0.0068781174103702 )
( 11.637036992620134 2.676496568593494 -5.473045577698248e-06 )
( 11.282899830651049 2.8001930438452924 -0.0054092487863758 )
( 10.926691194713422 2.91235530768992 -0.0103828371730205 )
( 10.55304418021598 3.0484696879850235 -0.0167651704191263 )
( 10.178367311282148 3.240941468015539 -0.0263218665784464 )
( 9.854066063310263 3.529062466555839 -0.037405135184957 )
( 9.466742160057796 3.885234542995217 -0.0472899110883215 )
( 15.47594721301554 1.082055160418576 0.0469450147406013 )
( 15.19927448809374 1.1614720611796852 0.0435265466168759 )
( 14.87294016741425 1.285593907251129 0.0437671183533046 )
( 14.606999478435736 1.377773229674113 0.043017466004358 )
( 14.327017635957692 1.4733092994313666 0.0415101837878309 )
( 14.019259520371188 1.5826440195046356 0.0390763912383961 )
( 13.71341902282366 1.67930856700548 0.0349242035334798 )
( 13.38402186529175 1.786953769648172 0.029443362934541 )
( 13.013477618740698 1.9298479987868309 0.0233873210136795 )
( 12.616012290809405 2.086349549344019 0.0166711252841361 )
( 12.202316936702744 2.264151024616239 0.0091502996141686 )
( 11.813539162948114 2.4329624558209035 0.0016517722976642 )
( 11.435500306672532 2.565562465914928 -0.0050761678743245 )
( 11.060520918941991 2.681768576796738 -0.010118504015644 )
( 10.678847958734933 2.811271197237946 -0.0140284573568978 )
( 10.290515985468764 2.963615930895417 -0.0207841754463575 )
( 9.920034449504046 3.183002242040108 -0.0328133702133161 )
( 9.539901285279784 3.4988144935842307 -0.0426499845710034 )
( 8.977883007726007 3.792350927766151 -0.0519673196667681 )
( 15.415193182856658 1.009671264531842 0.0354379052882537 )
( 15.136941531360568 1.087987781593906 0.0329551443872678 )
( 14.810123626649926 1.2055294468615012 0.0343040770116664 )
( 14.53492722590185 1.288121583899383 0.0345765316791537 )
( 14.248338312338271 1.38485182140276 0.0341039422395654 )
( 13.935498246857668 1.4976627281444514 0.0328332512677174 )
( 13.616943463097169 1.5884444990763882 0.0301765513947492 )
( 13.28222329356034 1.6892476105067549 0.0255215015935316 )
( 12.893118770588398 1.8283586150778963 0.0199196177742073 )
( 12.477902091875013 1.9814284045961887 0.0127865509527062 )
( 12.0491089076179 2.1543856635241245 0.0045163616950883 )
( 11.632870281281717 2.3224552786949397 -0.0029524221116488 )
( 11.242748993076193 2.4604317253848897 -0.0085779365209756 )
( 10.860746287063222 2.574347740408636 -0.013813244253008 )
( 10.45447809831937 2.711114204908513 -0.0194619335676682 )
( 10.044335700863172 2.8815623630695426 -0.028474598566375 )
( 9.66748272860537 3.1241729255134083 -0.038982751474418 )
( 9.1938313766456 3.4442690814962718 -0.0473478610479955 )
( 8.364621694301274 3.614199610251138 -0.0553174472111002 )
( 15.357431488137882 0.9366873388436718 0.0234414277335395 )
( 15.0796145614568 1.016610746289089 0.0229673341365623 )
( 14.751436262557258 1.130930613047646 0.0263336989432242 )
( 14.472701755865176 1.2091464459146906 0.0274579932440099 )
( 14.176364287108704 1.3013774149125874 0.0281783152296128 )
( 13.850679170670354 1.4016292980719414 0.0278565807923749 )
( 13.52346437692646 1.4903224654487988 0.0257402647245998 )
( 13.182915173617689 1.5876919337397402 0.0212401709850594 )
( 12.76896486524257 1.723728242512713 0.0155662563090872 )
( 12.336956891609145 1.8810851794953385 0.0088069457369443 )
( 11.905427446014908 2.046503531438553 0.0008447403308233 )
( 11.477456136912252 2.2137232186551765 -0.0061524387142683 )
( 11.071768714109442 2.358602692064881 -0.0112713566223444 )
( 10.663074508072391 2.470823977478274 -0.0162794324006705 )
( 10.244914067508848 2.606407407728621 -0.0229035913273786 )
( 9.824204351440224 2.7941585713798074 -0.033779690084888 )
( 9.390936267166635 3.0613246554226143 -0.0444118917416825 )
( 8.842184188367968 3.373592642494918 -0.0542866305903436 )
( 7.579521281132642 3.316534660868535 -0.0559034775283525 )
( 15.303819699534907 0.8714328215953306 0.0120728962579032 )
( 15.021709284546455 0.9467411647353964 0.0131394326060829 )
( 14.693452365174387 1.0568449558513846 0.0185808864537411 )
( 14.415409776903113 1.1353417950724078 0.0212456716013263 )
( 14.110217605840369 1.2202960908412577 0.0230522655216102 )
( 13.778855085058575 1.307975616331251 0.0235122391760819 )
( 13.44372152223566 1.3997094997687816 0.0222987428345648 )
( 13.08588675185202 1.5017939809283654 0.018104792683604 )
( 12.652675215162349 1.6274529113352392 0.0116129120883368 )
( 12.199565968271529 1.7818564060998998 0.0050190904368204 )
( 11.7616974004432 1.9391549085340745 -0.0019206424044493 )
( 11.334099191747883 2.091737454248046 -0.0088852594133034 )
( 10.91172284908792 2.2323856240381126 -0.0143732131010601 )
( 10.475706096587713 2.353946963990712 -0.0195246553548914 )
( 10.03900737128796 2.4967422011497344 -0.02503813524395 )
( 9.60406849891733 2.698688741572575 -0.0344491825846979 )
( 9.09378017778566 2.979429914810194 -0.0466141361084537 )
( 8.337885866317478 3.208799138464651 -0.0549415760968225 )
( 6.807943685893068 2.980779778357598 -0.0510021160670759 )
( 15.25688838664452 0.8045101648129094 0.0014464591676444 )
( 14.971475779171124 0.8781266339164553 0.0041555185232921 )
( 14.638591339097909 0.98429005036283 0.0119974097797361 )
( 14.359108756414749 1.0562066087425563 0.0164136363818488 )
( 14.049150514897024 1.140119426252473 0.0192529720414672 )
( 13.718549358302328 1.2307543196486428 0.0196566613022996 )
( 13.380993580790635 1.3209021368896627 0.0187956075104237 )
( 13.001425257811448 1.4170888817967875 0.0151944429428719 )
( 12.556169500159134 1.538230791481011 0.0085660683156995 )
( 12.095006855600063 1.6869185108106552 0.0023110266865097 )
( 11.63961682856524 1.8372034460198277 -0.0044134292413143 )
( 11.188004437246155 1.97453214970284 -0.0117872052911409 )
( 10.745564439693249 2.102583045749146 -0.0184304760317412 )
( 10.294895725883572 2.228752916645309 -0.0252849121731479 )
( 9.845038675780934 2.3871901470531647 -0.0311662007183253 )
( 9.37703083252747 2.616480134435045 -0.0400210883751511 )
( 8.802472475471355 2.888573403912204 -0.0493679321443749 )
( 7.777413730245439 2.970465855514566 -0.0517621686245865 )
( 6.135702190754781 2.661154336382187 -0.0479613166926126 )
( 15.215354567460972 0.7356109179102673 -0.0087262001746574 )
( 14.932128227710525 0.8091751622470862 -0.0037051105445487 )
( 14.592654834237814 0.9135029210306872 0.0065511556925705 )
( 14.307156039944656 0.979183686157692 0.0125497741865044 )
( 13.9911331626022 1.057639616642069 0.0156804365307174 )
( 13.657083964308 1.1478397045478996 0.0163884155578839 )
( 13.313965792456866 1.225552944629023 0.0153445430378566 )
( 12.922703026401551 1.3179531871197292 0.0119054570619876 )
( 12.477089407975315 1.4484231784626465 0.0060787592508839 )
( 12.008872998089984 1.5911681744466195 -0.0004994120685568 )
( 11.53089072158717 1.7388776951960796 -0.0084449742107907 )
( 11.05487099581312 1.8631740079666543 -0.0156149374739614 )
( 10.59331474498853 1.9791490041948872 -0.0229773334347625 )
( 10.118063715513358 2.106927546650509 -0.0308353857912269 )
( 9.653711549585642 2.2739055215684782 -0.0375490852970998 )
( 9.130807211730206 2.5182174201752527 -0.0473089086651598 )
( 8.473364434852181 2.759477076375612 -0.0549305378820113 )
( 7.2976956275826526 2.7299370889387 -0.0520662078249987 )
( 5.506535704090178 2.332679459488439 -0.0450887975586536 )
( 15.179702422987436 0.6764306077844505 -0.0172045701622829 )
( 14.89636424956036 0.7445756734701272 -0.0100750190059655 )
( 14.55265608193726 0.8412629598606276 0.0014805201163697 )
( 14.261710314641968 0.9054338697809076 0.0079995342071326 )
( 13.940901071392584 0.9759430240207824 0.0114296339037964 )
( 13.605412292427763 1.055608342515587 0.0133337016386632 )
( 13.248567177649866 1.126235830233613 0.0124050624055674 )
( 12.848083825503286 1.2251547610189644 0.0093252595067653 )