/*--------------------------------*- C++ -*----------------------------------*\
| =========                 |                                                 |
| \\      /  F ield         | OpenFOAM: The Open Source CFD Toolbox           |
|  \\    /   O peration     | Version:  2112                                  |
|   \\  /    A nd           | Website:  www.openfoam.com                      |
|    \\/     M anipulation  |                                                 |
\*---------------------------------------------------------------------------*/
FoamFile
{
    version     2.0;
    format      ascii;
    arch        "LSB;label=32;scalar=64";
    class       volScalarField;
    location    "0.0012";
    object      k_LES;
}
// * * * * * * * * * * * * * * * * * * * * * * * * * * * * * * * * * * * * * // 
 
dimensions      [0 2 -2 0 0 0 0];
 
internalField   nonuniform List<scalar> 
13597
(
0.2033532050185133
0.2093014225800673
0.220952109501148
0.2365115004165733
0.2488004811893559
0.2569165195766023
0.262065080823419
0.2644948683467549
0.26440317454313
0.2616180159200508
0.2565411440659307
0.2497450141073489
0.240762042352787
0.2302514352273797
0.219337633910921
0.2082135764930336
0.1966816618546089
0.1847968171378242
0.1737312957847463
0.2162368108729306
0.2255861231115737
0.2427913582997149
0.2642154550424898
0.277031039008316
0.2841890038410291
0.287429599988525
0.2870525609036989
0.2829882705826431
0.2753962063284838
0.2642824593434215
0.2500130327046696
0.2341587774253778
0.2181533336218004
0.2032811645202962
0.190035133484595
0.1782087940752931
0.1673447743834001
0.158570660014737
0.2253813119243294
0.2357573030889792
0.2538974098033839
0.2722311001840473
0.2790406894918553
0.280180391682497
0.2756112614246429
0.2666412475406065
0.2541702915122588
0.2384005816640816
0.2204986456486397
0.2021631359886882
0.1849295518691687
0.1702017922242725
0.1587739325262216
0.1502401159483367
0.1435231431527805
0.1377586641195518
0.1334266441523558
0.2285114322218828
0.2378187982239914
0.2515635964594818
0.2610338140327435
0.2588633833904076
0.2512245196809644
0.2376590081536189
0.2215031907167609
0.2045840080432793
0.1868926576601222
0.1688253450074333
0.1538607378495084
0.141726799903032
0.1326351236486035
0.1269783065359216
0.1231401650627361
0.1203065070894067
0.1179771341911393
0.1163331046286706
0.2263718381862778
0.2316139579375715
0.2382762351719954
0.2381480941992416
0.2277932277196615
0.2137585287432408
0.1958186668700819
0.1775834260645917
0.1612881847428159
0.1466038203987654
0.134203468500405
0.1254867382272134
0.119782353734715
0.1166181478486836
0.1152873463474978
0.1148464244696915
0.1146503098278025
0.114752720462859
0.1151012943554465
0.2190732662944732
0.2186831433241152
0.217366863522415
0.2098699491447335
0.1949253040074576
0.1782839524904271
0.1614543574087045
0.146349666190879
0.1337626884340237
0.1245423738164978
0.1195101028360242
0.1169891353973309
0.1168412267019682
0.1179662558522052
0.1194232877964404
0.1210427898339912
0.1225708709443706
0.123846306216085
0.1247510403159263
0.2076555804467273
0.2030451813169026
0.1953066644118813
0.1823260106135051
0.1664977945674726
0.1507389367273737
0.1372005020582677
0.1275659552485904
0.1214247455410442
0.1190060611422317
0.1194931507854933
0.1215368100113265
0.1248558810265135
0.1281188462196389
0.1308527657216134
0.133175571211648
0.1347752362497414
0.1356087518058744
0.1355482426888128
0.1958741102578551
0.1873828282083579
0.1753769554069558
0.1602204548262167
0.1451726761009702
0.1333725965030536
0.1251329093688418
0.1212440374834843
0.1210837964900515
0.1231689288122718
0.1271879635956067
0.1323376596246196
0.1367922701332315
0.1403821323769566
0.1426840631320901
0.144403601816149
0.1450167995956764
0.1445101417441961
0.1429681038022609
0.1846010349260441
0.1725351026896179
0.1580442247498275
0.1439796588278054
0.1323000538351266
0.1251826641423591
0.1222403839673989
0.123272974649406
0.1272214910365592
0.1327159559659899
0.138537347080834
0.1442853318596701
0.1482157460768512
0.1508484499113176
0.1521844485382507
0.1526103903320023
0.1516750173920698
0.1496685853157258
0.146580321440585
0.1757622965280107
0.1610449264692009
0.1454073555918558
0.1342215880276761
0.1267143676678343
0.1235500618803475
0.1249459419923007
0.1299735502708519
0.1365580588989295
0.1436024991918119
0.1495654747633851
0.154085819366647
0.1570586452491907
0.1584313547948915
0.1585055935491659
0.15757784427302
0.1553855403208598
0.1521058503503079
0.147949144079445
0.1694560880211116
0.1535820079676922
0.1386017666766851
0.1297703609299752
0.1252241535034486
0.1261911940228162
0.1313392433514194
0.138858868769079
0.1466818182156722
0.1536266149753358
0.1586046098184844
0.1617696328966699
0.1633383441292205
0.1632366778356771
0.1620002374960389
0.1600497336501208
0.157212730973146
0.1532741425898025
0.1484201927819935
0.1644623096422419
0.1486459759735766
0.1349863879606012
0.1286394634051981
0.127402710953726
0.1314125211612227
0.1387253104449838
0.147357160918246
0.1550517923650546
0.1611575611169542
0.1651629013029586
0.1673644879336868
0.1675705270564682
0.166103226769389
0.1639995742943898
0.161473721273758
0.1581230917578804
0.1537621074673535
0.1484387252163843
0.1613971299812809
0.1451652821183433
0.1332449847252746
0.1296662235397004
0.1314835513131733
0.1377141406073063
0.1461441605516278
0.1551962902540467
0.1626506279159411
0.1674253355105759
0.1701610149320612
0.1711982686444475
0.1704242213311995
0.1682486249425634
0.1657664556243195
0.1626951421700516
0.158845944699856
0.1542131153987808
0.148488693159792
0.1603408504298973
0.1430775077962076
0.1330762436152493
0.1319868008928411
0.1361266674856032
0.1440014066877493
0.1530588725112807
0.1618164160085623
0.16880560499955
0.1728896449938538
0.1742203932478687
0.1743827263987703
0.1727073937971654
0.1701163575160379
0.1673530598168598
0.1638265957417926
0.1595801638088077
0.1548780359292669
0.1489716575248893
0.160059406069955
0.1429266612628426
0.1344069582899024
0.1353203986097498
0.1413066403967177
0.1497651014023903
0.1590699537818395
0.167597214135639
0.1737366872197606
0.1771357394507662
0.1777407671339424
0.1769238624527991
0.174552835252381
0.1718253435356463
0.1689587425305712
0.1651365601019615
0.1607439758898083
0.1558227515639938
0.1503604473276629
0.1593392833346582
0.1431370168809324
0.1362708559471556
0.1388738522748639
0.1461753760043121
0.1549981997665158
0.1644321869096997
0.172607905318449
0.1780705508639869
0.1804716996244973
0.1807382632363162
0.1792614538966801
0.1766721725207801
0.1737347629126976
0.1704910964838753
0.1665619375598737
0.1622244349124018
0.157600972038775
0.1540536784560219
0.1587143665535338
0.1428677025447679
0.1379028318595559
0.1420527172224643
0.1501513193846582
0.1596297606702552
0.1692541194789639
0.1768707418134637
0.1813510737993887
0.1833132356411368
0.1831509182045613
0.1811865120653999
0.1784280168591772
0.1751535199945894
0.1718324892464815
0.1681353998410293
0.1640930770415667
0.1612713903327376
0.1600953582233878
0.1581540310556285
0.1432401571960642
0.1399382626055004
0.1451802717470312
0.1537160508760936
0.1635589193141441
0.173229310436607
0.1800957125037728
0.1843392610620117
0.1860374949425691
0.1851455730062976
0.1828462483380283
0.1799792090458721
0.1766457215213754
0.1736258134911206
0.1703180577004165
0.1674726208798766
0.1668986475911922
0.1649653649060536
0.1569230296749074
0.1432468206945629
0.1419457643135278
0.1482112886971106
0.1571278867991301
0.1672746025716316
0.1763209852480711
0.1826838873982655
0.1871143212797919
0.1885994755438282
0.187413866022214
0.1848359937338856
0.1818357948164346
0.178688216726152
0.1758852721175143
0.1733164114613116
0.1725440624469797
0.1738177418806941
0.1672167671001087
0.1557735858858229
0.1432154348199414
0.1435700951555807
0.1507076020475929
0.1600572798170355
0.1704965273299842
0.1796982668936069
0.1858532088472182
0.1898426194742364
0.1911295866586387
0.1894339783618825
0.1865717092587547
0.1837585884578761
0.1808488594774122
0.1783595653501275
0.177289052431128
0.1789374013163158
0.1799342061671958
0.1661999487615956
0.1547655735976772
0.1434330921321174
0.1449713020814347
0.1528726696913419
0.1627150309348322
0.1730034615697222
0.1827554200662922
0.1890466603257366
0.1924199277085162
0.1932736919113664
0.191236924747432
0.188236575678869
0.185396943284566
0.1826746220885521
0.1811884037444829
0.182480685908315
0.1862586984442105
0.1846715026406656
0.1586570235086111
0.1533983314809197
0.1431601604172914
0.1465531377560322
0.1550232019336004
0.1654345125134501
0.1764025950665282
0.1860354886508197
0.1917215792849018
0.1943420110350056
0.1947625106935237
0.1930109161400548
0.1897336490265616
0.1866613852580834
0.1848229904731169
0.1849049256465685
0.1886999134515482
0.1933117252624412
0.1879845394013167
0.1426803080718168
0.1515342440783638
0.142519183412644
0.1478880431135985
0.1568007756960359
0.1678392480568289
0.1797954959336104
0.189541729908595
0.1944172971685719
0.1964775671147492
0.1964493863188192
0.1945070233384663
0.1915006944359813
0.1888759731530875
0.1878059514414028
0.1899040599589455
0.1956598238216937
0.1996208281024426
0.1844301190357261
0.1265670773074367
0.149988592849354
0.1421503080784556
0.1493774002423886
0.1591759028872528
0.1704221638529973
0.1821218359757188
0.1912454849086044
0.1965073479986985
0.1986435674430022
0.1983661765498255
0.1961298545033279
0.1935009505378291
0.1915922943640891
0.1913715688289008
0.1954505198956549
0.2024608714580238
0.2048381817266248
0.1763340624223167
0.1127962788140323
0.1488185262188433
0.1423002340201864
0.1508326797656124
0.1616561832442315
0.1731324796582266
0.1843808398373417
0.1931085605066594
0.1984289006982542
0.2002977791664269
0.1999303368561705
0.1977250634106802
0.1954286256125087
0.1940154072723688
0.1952794338620685
0.2010182401281991
0.2086509160505481
0.2074765645252381
0.1684489767098727
0.0993238542146656
0.1478728633973833
0.1427405057159743
0.1522488877420198
0.163463147601788
0.1756704239303532
0.1874099406569048
0.1957630081105604
0.2002519779459879
0.2018569876072252
0.2014118255991701
0.1990993654262912
0.1970809744089815
0.1964076357118629
0.1992243929382008
0.2064172052915441
0.2142618191634605
0.2048596031425852
0.1575969817596088
0.0896476496417965
0.1471779694227305
0.1432290598815734
0.1536365273122583
0.1654642848642203
0.1780848313823481
0.1901065619176783
0.1977996173990436
0.2017522069954801
0.2034599961414
0.2028851843264015
0.2004567581241458
0.1985100060614533
0.1985379132046269
0.2028130084767992
0.2117786888072283
0.2191283500807696
0.2019364822822354
0.1469605948144652
0.0820273679055804
0.146436518478701
0.1435831373985381
0.1548955295410988
0.1679655902523134
0.1804829981984722
0.1918204136183956
0.1995332163751596
0.2034963964166981
0.2049745617575426
0.2041511323708418
0.2018387523775781
0.2000619624493166
0.2006366315870237
0.2063324292242626
0.2174001074964112
0.2239976605864161
0.2025044744505532
0.1404529493835731
0.0763021828258858
0.1462758791062176
0.1443362484822003
0.1563011546707599
0.1702295382722637
0.182575005013799
0.1932952991657375
0.2010676074964407
0.2048950296292642
0.2061434578380042
0.2050925267458478
0.2032804340058632
0.2020031080281999
0.2036878673012376
0.2104145540456322
0.2221832843195005
0.2272820837767665
0.2015471521296201
0.1354324461189543
0.0731147815764145
0.1465389212581976
0.145359413046452
0.1576942222759563
0.17220750942171
0.1846849344211501
0.1950448394813793
0.202729461956873
0.2061404354719704
0.2069925422050515
0.2055195639430406
0.2042011781173095
0.2037824875473456
0.2065403420537944
0.214415137479492
0.2263855889559785
0.2243772536339735
0.1937180239497838
0.1304281366939856
0.0712783801151621
0.1467093922343591
0.1461857689648346
0.1591494910801982
0.1739334038981987
0.1867759690880255
0.197063172399306
0.2042748203582549
0.2075501877804364
0.2082646153434391
0.2063673508153113
0.205091807032122
0.2056176868804232
0.2090635659257236
0.2181135269689939
0.230384388052212
0.2213461629401623
0.185554380575119
0.125751311405159
0.0700441694953486
0.1471380294588972
0.1471967903689256
0.1611460433611862
0.1759030662852042
0.1887819738129135
0.1989574038303561
0.2058568997224164
0.209051334010444
0.2095122856969124
0.2073827491142687
0.2061262661598711
0.2075946139296607
0.2119157531319846
0.2219389683597801
0.2338425326315107
0.2223602075970228
0.1828724092224
0.1216584235234844
0.0682817332508803
0.1476882005096358
0.1482303696044653
0.1631727485122312
0.1781245701743664
0.1905061431789495
0.2003743333581263
0.2073447924881081
0.2103987921229392
0.2103996053120179
0.2082979390959853
0.207245018607779
0.2089939506052526
0.2140314881286219
0.2249869187598775
0.2375458267060705
0.2246990296634599
0.181932329711654
0.1186547650246894
0.0662769033454588
0.1484352394206035
0.1494289818747814
0.165036499439796
0.1799535213728838
0.1920531128932393
0.2016475574884379
0.2084657692505953
0.2115073405214675
0.2116016717663399
0.2096255856102315
0.208673721441672
0.2102741254422913
0.2157327618978117
0.22725038599441
0.2407997076052085
0.2272224080940543
0.1818615537320694
0.1168397850587837
0.0652192265848323
0.1494999019367298
0.1510072638020564
0.1669854285294937
0.1816116403758767
0.1939859760879799
0.2030187547271444
0.2093845558514434
0.2125919313056801
0.2128496423289265
0.211020506296631
0.2099181510163855
0.2114411700423034
0.2173854289510199
0.2296627077903405
0.2433408934733597
0.2283206363553285
0.1813097992142345
0.1155569503866297
0.0646934160853297
0.1502728324134043
0.1523583855916266
0.1687490367682921
0.1835556035165278
0.1963541948990933
0.2050477531068374
0.2107387063695006
0.2134886253461992
0.2135429406268108
0.2120715194943275
0.2109951821807098
0.212480103455597
0.2189240685114702
0.2322266813312342
0.2460523038145578
0.2295730014019539
0.1803531791272142
0.1139165780635898
0.0638651426932692
0.1508795289033195
0.153430213320412
0.1703384217051709
0.1855208514533128
0.1984517690951459
0.2069114680911804
0.212346837545435
0.2143403794384041
0.2139999462606792
0.2129917822223872
0.2120657919465547
0.2138236506506405
0.2206039882609775
0.2344944704352562
0.2479686779473424
0.2301123824099907
0.1805986811406228
0.1138388533877572
0.0631709766450667
0.1516529514018152
0.1545877176031865
0.1716923474142849
0.1871383664923939
0.2000838044427303
0.2080918936452845
0.213560993848499
0.2153146358475543
0.2149331135212286
0.2138150792700342
0.2128217172477841
0.2150569630441137
0.2224349833606053
0.2365576085344605
0.2482661408785599
0.2295516120069964
0.1802781473881459
0.1141379194415891
0.0630554288729658
0.152364053796099
0.1557209639974232
0.1729346735453161
0.188246841693473
0.2013973433507688
0.2092288653148205
0.2144914588127769
0.2160987811321175
0.2156958779011449
0.2141851980681287
0.213057637858566
0.2156853640453736
0.2237759633993497
0.2384849609584269
0.2479866215334635
0.2284102021761132
0.178733362605821
0.1131527909785902
0.0632077573839645
0.1533083839430656
0.156916662264106
0.1740723310367844
0.1891640871716692
0.2026695844688441
0.2102861633213329
0.2151936974834084
0.2165669731363027
0.2159906864050034
0.2145737628844759
0.213412971749157
0.2162627854650204
0.2246855590846522
0.2397567558797074
0.2479961779683052
0.226737354499787
0.1775606100358533
0.112643217839773
0.063316595578201
0.1544136688149069
0.1581957378634368
0.1755254667113437
0.190438135674424
0.2039270233677413
0.2114443699811697
0.2159107253109537
0.2170002697014349
0.2164342852612693
0.2152096352647716
0.2141076409888656
0.2169647855181959
0.2256193957645594
0.2407424862042744
0.247278538607737
0.2244004092871237
0.1760281716144183
0.1120672644127282
0.0634120782297324
0.1551185341180549
0.1591616576408055
0.1766296806965029
0.1917339131907725
0.204891517146182
0.2125151205641639
0.2166485572450761
0.2173124977461509
0.2168382403138929
0.2156787158010254
0.2147905231799858
0.2176420061088704
0.2263051662536058
0.2414102807433568
0.2470321676615108
0.2234160216207099
0.1746236708799425
0.1110955478261037
0.0633201582127916
0.1560464910991572
0.1604652961279832
0.1774835809303991
0.1926459399833394
0.2056395671258749
0.2133621483698786
0.2174092718676407
0.2176313105870456
0.2169296184328812
0.2160534339709383
0.2153383067577693
0.218111386873789
0.2268008984054162
0.242243103089088
0.247911378056891
0.2235060460337511
0.1739039246185208
0.110402445343698
0.0628618107952233
0.1573444981261512
0.161838148526652
0.17855960645979
0.1932881665137281
0.2061374015250315
0.2143355981814601
0.2183959779562308
0.2186554259600133
0.2172832568898224
0.2162512105197471
0.2158553241420333
0.2187141065032809
0.2274615985860451
0.2430390034192484
0.2472002235348392
0.2219495418788424
0.1732204199635272
0.1101611608452255
0.0627747868313002
0.1377785602493721
0.135273797496558
0.1313882658871727
0.1295318799605818
0.1302448365443225
0.131044831159118
0.1319677071704914
0.1326018930618386
0.1327456171317691
0.1328754192650192
0.1325578106425444
0.1320577523051924
0.1312339938345595
0.1295204788969105
0.1275768204015672
0.1259549741364647
0.1247804236367197
0.1237210585337907
0.1231321989536054
0.1441817627898283
0.1429503695632772
0.139987007237797
0.1400193387062409
0.1416512272908017
0.1431432937757479
0.1449539881146558
0.1461599492541621
0.1461894698791315
0.1460329075662982
0.1456263708270806
0.1452785372238311
0.145012004274308
0.1439526580046394
0.14300041454608
0.1429260367269196
0.1431379820126466
0.1433002914315536
0.143424158341172
0.1514546089336179
0.1517307537311413
0.1510817058412052
0.1539065853662465
0.1570410070020381
0.1597394992579403
0.1622138241315539
0.1639688628371617
0.1646888624853412
0.1651691034423274
0.1650386574572287
0.1644254421749016
0.1638888110497965
0.1639779382852934
0.1644057540311192
0.1651348657888098
0.1655525311428382
0.1651491854810805
0.1644402912190184
0.1597739749665634
0.1613228394006006
0.1628210414410071
0.1672244410460799
0.1704465057455939
0.1732820187418636
0.174858024644466
0.1754920187064569
0.1751195695628321
0.1736322334323966
0.1720269747826001
0.1705840488770694
0.169982642261952
0.1696928070274974
0.1692190758042737
0.168947202859749
0.1684494987380551
0.1679217147148148
0.1676245532965428
0.1672543934993544
0.1691400471520723
0.1710799107344011
0.175343828223074
0.1775972280793215
0.1786575353364107
0.1781979423453786
0.1766527983107096
0.1749881315074535
0.1727769994299978
0.1707527945234398
0.169750174117547
0.169988120201682
0.170428554971711
0.1709789123350592
0.1718615119046101
0.1729610677749253
0.1741742367362954
0.1752109757403537
0.1726909492584761
0.1738576559126826
0.175003168510706
0.1775894311164943
0.1782899442751138
0.1773210559257243
0.1752615856092667
0.1736468507281693
0.1725697187578352
0.171569715376764
0.1713227227467111
0.1724908043920939
0.174867725768008
0.177333190913185
0.1798112400591222
0.1821827669555378
0.1837738457512444
0.184894197650328
0.1855928692740457
0.1766062185028687
0.1757884967198506
0.1751196579385208
0.1762598816196461
0.1756038879722567
0.1735201415772687
0.1721811747625248
0.1723339440016406
0.1732350831980142
0.1747105224327015
0.1773441461966249
0.1813656977338692
0.1855347447957127
0.189164067316148
0.19171706783641
0.1933364245675114
0.1939304314812985
0.1937425221157467
0.1926800263874522
0.1777312020310383
0.1747235090489572
0.1728254036135992
0.1730359167346887
0.1721635741019312
0.1712290076162179
0.1724550949675214
0.1747642229211672
0.1780149538662805
0.1827574804280361
0.1882474698118997
0.1936870985780162
0.1973654913235812
0.1999910226916426
0.2011982374903773
0.2012068559442661
0.2004426465347878
0.1986748846403666
0.1957356577403291
0.177607071100071
0.1729155077985925
0.1700531519227033
0.1702904910778102
0.1703417601917526
0.1720100671912133
0.1761787788656021
0.1815924382189297
0.187480191445062
0.1937678029781148
0.1999267124276124
0.2047353668571784
0.2070424576608484
0.2078459313308789
0.2072470435794446
0.2054180527329555
0.2031605677473053
0.2000211477048676
0.1958509162513407
0.1762694410880888
0.1703261541407952
0.168044194485872
0.1693518480787896
0.1711912997314217
0.1758233272542201
0.1825225709334271
0.19047587142507
0.1981824681547629
0.2049495541834936
0.2102384505672798
0.2126177458882203
0.2130332794499321
0.2124705757923724
0.2103170774595248
0.2070363867169349
0.2034812679330648
0.1992323483320218
0.19412437374515
0.1732733584819303
0.167479362804662
0.1668877747900623
0.1701279658135233
0.1749657409628849
0.1821551059944665
0.1904342307388023
0.1994832266014709
0.2076156734137832
0.2137071706986901
0.2173183716906082
0.2181482771612598
0.2167165736357438
0.2141940080308113
0.2108857216955662
0.207086774795556
0.2025184645525996
0.1974138973926015
0.1919066794075118
0.171268304991827
0.166087110820442
0.1669526117524259
0.1723779899151072
0.1797009174309443
0.1889733947323549
0.1987502316247779
0.208402768128965
0.2160693812918222
0.2205936230385634
0.2221974670155272
0.2213422503762556
0.2184802566923305
0.2145861640014424
0.2102954383490909
0.2061890870777807
0.200981469330783
0.195223111680233
0.1897839751634482
0.170156936732257
0.165555937985651
0.1686241657070775
0.1761374863301382
0.1851473954117846
0.1960514563039474
0.2066391659701914
0.2159088403970391
0.2230328549628158
0.2260580421314748
0.2254351433493718
0.2228427236178974
0.2187938308645687
0.2145090546427389
0.2096784054856915
0.2044915010740161
0.1992454808009869
0.1935586755439365
0.1879685226571595
0.1691377235927632
0.1659327218503159
0.1714541336538531
0.1804431217625532
0.1911013752658356
0.2025707011048398
0.2134472544392562
0.2225652737345501
0.2284388466043536
0.2294065232544429
0.2270431421719783
0.2231861681430326
0.2181956206493456
0.2134800492851428
0.2083817553497292
0.2027218478683903
0.1975202065107229
0.1923371992512018
0.1869040919117062
0.1697304119664806
0.1672242201994517
0.1741152022804731
0.1845890461926578
0.196796105992492
0.2085872318789393
0.2194385547622535
0.227825910293283
0.2316437299171405
0.2309285781634558
0.2278770789116432
0.222962051373903
0.217335299858731
0.2120757720209816
0.206786827055536
0.2013132544115477
0.1964695164616692
0.1917927723524138
0.1871080723163642
0.17100658084592
0.1689212400844877
0.1773751921721998
0.1891457424542045
0.2020983219461186
0.2145831832175822
0.2246596843283456
0.2317781387580209
0.2339714954155174
0.232038100375983
0.2279011616137258
0.2221132037139698
0.216548657118572
0.2108769304817447
0.2056754943452312
0.2007895560732036
0.196163096430031
0.1922412443212441
0.1899508570672143
0.1710360106244053
0.170003731359322
0.1811390581623327
0.1933270222623612
0.2068893168127666
0.2191934271196318
0.2284678417210621
0.2347812653100717
0.2355844596073443
0.2326911366351251
0.2273596846172934
0.221462942338103
0.2158333818873683
0.2099350257130886
0.2048567353693792
0.2006765413446585
0.1967233933106358
0.1947237339140061
0.1954145835381961
0.1705341794288984
0.1709853081409581
0.1846975265467164
0.1970985189102613
0.2106762893006472
0.2227190870361377
0.2316289044295937
0.2363689241171917
0.2356450771312427
0.2321594469503365
0.2263977291649762
0.2203811785571642
0.2144681615691487
0.2091658071167997
0.2045997870765516
0.2011231004398219
0.1987787432242974
0.1999693015177129
0.2012597980102181
0.1706540072363103
0.172925359385997
0.1871596506129196
0.2003826694322679
0.2136673635968934
0.2251445155370187
0.2338203750988563
0.2372011940997343
0.2353146973348992
0.2311847967353569
0.2253481519103223
0.2190968678393455
0.2134391810099571
0.2089043618908184
0.2048718399806884
0.2025051722405924
0.2026308510949583
0.2065564145173547
0.2039963778819946
0.1714233229610285
0.175030434395272
0.1889699950256197
0.2029053758834988
0.2163903278268682
0.2271971605904517
0.2348651278777141
0.2371451835170977
0.2349682478572194
0.2305535126207168
0.2244326510106587
0.2184642374519786
0.2133033055393445
0.208889927462973
0.2055192306673386
0.204829241128805
0.2083057575766178
0.2121892377008927
0.2025750615927954
0.1727013099580915
0.1762376687750283
0.1908226092119883
0.2051005872047782
0.2185953617935934
0.2288447253760404
0.2352885556438075
0.2370463269045435
0.2346589907855182
0.2298346166040379
0.2233655673728122
0.2174753647044208
0.2130709600554242
0.2094165753189394
0.2075690943390666
0.2090230550247358
0.2152173209762616
0.2174244610193936
0.1943742193097206
0.1735263045570779
0.1769353151328287
0.1933400767358056
0.2074158197233139
0.2198600318697864
0.2297338628542911
0.2353974230537701
0.236796505833048
0.2338045060977583
0.2288112290965306
0.2225169344980156
0.2167812488393102
0.2129165038627037
0.2105216033425946
0.2102898640295556
0.2144751222760175
0.2226523455479392
0.2228197796085652
0.1754398450441445
0.1743074386431526
0.1779055542110255
0.1953048958330619
0.2091818936276354
0.2205381033557306
0.2301324809363966
0.2353780898250018
0.2357130815968918
0.2326022890141815
0.2276726072564026
0.2218467913720677
0.2167746721848184
0.2131960395812824
0.2117627851070183
0.2138273643130618
0.2214670516248747
0.2292317993839084
0.2165473563745553
0.1546931278057515
0.1744464009083475
0.1784364867288709
0.1956792917612276
0.2097378228056385
0.2211855366828711
0.2300409521278439
0.2346690801672421
0.2344438448091274
0.2315351488228264
0.2268173151884096
0.2214445822139937
0.2169583452347496
0.2139478465992439
0.2135745207269297
0.2183625577067507
0.2283525160878606
0.2338907605804359
0.2044582822646183
0.1381028560531011
0.1738801958231906
0.1782644410821657
0.1960009518267317
0.2099798089661051
0.221787831520994
0.2301442688698185
0.2339550665272368
0.2331945796857526
0.230481273318849
0.2264466650107202
0.2216381903358524
0.2172537267484809
0.214936572535575
0.2163273940883087
0.2234250481088898
0.2336236153963311
0.2350640671203532
0.1958031821607526
0.1223711618207972
0.1735211052951491
0.1778788304432304
0.1961876166918704
0.2102866867716738
0.2219603252508772
0.2295546145039209
0.2330361411299239
0.2325680520963917
0.2297286044701181
0.2258699887302503
0.2218743133621717
0.2176547541249004
0.2160011246404434
0.2193080023745202
0.2281692816193664
0.2381903404262459
0.2291497003509545
0.1806626808362395
0.1080928128628164
0.1731551788065744
0.1774201464165285
0.1959164262525288
0.2099888858273973
0.221562758742982
0.2284957213259024
0.2318729814955505
0.2322847521402669
0.2295362101486781
0.2253418038950863
0.2215838107821151
0.2181140090312832
0.2175126695776529
0.2220753854364074
0.2318168047669577
0.2419319807017721
0.2249036653952868
0.1668356544254382
0.0965411987313049
0.1727226972553843
0.176908635977652
0.1954744178519751
0.2094787113340713
0.220824640873155
0.2281327186041201
0.2314781741243395
0.2319205982122501
0.2291970955719984
0.2247023108361705
0.2209691520121747
0.2181803091728478
0.2189889182972113
0.2249864543424319
0.2358367358351025
0.2458581338198688
0.2253727952976613
0.1600332927700599
0.0895067453835938
0.1725697967685845
0.1770077867122457
0.1955013607191279
0.209204159609228
0.2200476342519582
0.2279045740833098
0.2313762649167975
0.2314960847992426
0.228197949326267
0.223502655723985
0.2201361326519603
0.2181148627758219
0.2202384954922079
0.2276091653120498
0.2394979924064924
0.2456736188498158
0.2201454690439056
0.1534416813116915
0.0851926198192531
0.171914935217693
0.1767177874680721
0.1949342214908269
0.2086580293969565
0.219437542537129
0.2272269295564802
0.2306865378341939
0.2306153710852251
0.227139854310418
0.222413575816699
0.2195042936132243
0.2186447000323401
0.2217308888665544
0.2299496641191815
0.2423215195260245
0.240984590685295
0.2075714387021276
0.1433808055167313
0.0808812352085468
0.1708380067407338
0.1757800850473114
0.1937079811025094
0.2076414421385576
0.2184141435937553
0.2258906349844338
0.2296228974753678
0.2296892727991594
0.2265260146089019
0.2219539407322701
0.2193845311557977
0.219123577389204
0.2225839052544281
0.2319602079739337
0.2452655975402707
0.2376647812012039
0.1974163969315235
0.1345322814598594
0.0769378508462117
0.1699304304787002
0.1747810286590036
0.1929332981443579
0.2064485528590294
0.2173059297418847
0.224679385720767
0.2284604619144747
0.2285610623523457
0.2258158703755639
0.2218689263241345
0.2195433275532781
0.2193853397390544
0.2231338681954316
0.2336690975184915
0.2477473143451379
0.2370924530524317
0.1935930668980151
0.1290565544950993
0.0734664272490281
0.1690301479537035
0.1735194434674808
0.192182109853951
0.2054320950443496
0.2163984269393978
0.2238322834998402
0.2272503418669171
0.2275055327081204
0.2253007751782053
0.2216353116033248
0.2193027853321172
0.2196457806921748
0.2240703677787196
0.2354148792536995
0.2494840684789238
0.2377795585415304
0.1914748771778702
0.1249006895135425
0.0714660336207956
0.1679962799209074
0.1723521119858622
0.1911028586327705
0.2046600948028857
0.2156614332045778
0.2234095558161404
0.2265742486231032
0.2266212105569837
0.2245587072032419
0.2213081926615315
0.2188940966901693
0.2198164985701838
0.2250264372825584
0.2369237062646411
0.2505180730374678
0.2377169610733407
0.1899565115927111
0.1218395614975589
0.0695113782505306
0.1669306393044217
0.1713697715331412
0.190105171098728
0.2039543761430014
0.2149764956862281
0.2227579100322812
0.2261819903039252
0.2260172434005943
0.2235466201632406
0.2210579359595839
0.2189160267298538
0.2198905536323136
0.2253913633165292
0.2380070003473386
0.2514821422074416
0.2374963051696009
0.1885317358955613
0.1192977522832893
0.0674846380885042
0.1661751992179389
0.1702292224493014
0.1888172098098147
0.2031493078473129
0.2141024306229942
0.2217450074112096
0.225566687356479
0.2251683707075653
0.2228322395576657
0.2207921366450622
0.2188718384054341
0.2198429873842445
0.2253769333377867
0.2390632237330071
0.2530521569470642
0.2375780018272979
0.1864079585966557
0.1173578412289116
0.0665879795231664
0.1655451290497525
0.1690390553696165
0.1872872356852901
0.2020853418052535
0.2128253168340086
0.2208029174080498
0.2247219693886782
0.2239652951402952
0.2219962204096975
0.2204943080569694
0.2188625013710931
0.2202268587664338
0.226154373530761
0.240068191224332
0.2536609218953141
0.2373167701647242
0.1851028474357211
0.116283554405642
0.0662064891304914
0.164528107601051