/*--------------------------------*- C++ -*----------------------------------*\
| =========                 |                                                 |
| \\      /  F ield         | OpenFOAM: The Open Source CFD Toolbox           |
|  \\    /   O peration     | Version:  2112                                  |
|   \\  /    A nd           | Website:  www.openfoam.com                      |
|    \\/     M anipulation  |                                                 |
\*---------------------------------------------------------------------------*/
FoamFile
{
    version     2.0;
    format      ascii;
    arch        "LSB;label=32;scalar=64";
    class       volVectorField;
    location    "0.0012";
    object      U_LES;
}
// * * * * * * * * * * * * * * * * * * * * * * * * * * * * * * * * * * * * * // 
 
dimensions      [0 1 -1 0 0 0 0];
 
internalField   nonuniform List<vector> 
13597
(
( 17.395659803839873 1.8893133322353328 -0.0054292723722928 )
( 17.39898509814669 1.9394073451567724 -0.0025510162956127 )
( 17.418464864557013 2.0393449446250926 0.004526006570093 )
( 17.450437595815032 2.1657150199991566 0.0145551249801794 )
( 17.478315609786662 2.27061752431644 0.0240916545047747 )
( 17.49801932436112 2.353630488940072 0.0327708941292347 )
( 17.520980233177156 2.4334327206408624 0.0421984605650629 )
( 17.546276532306162 2.5172256041186007 0.0527391587173978 )
( 17.574126919863694 2.5990051218784043 0.0635622128333546 )
( 17.603491092859265 2.6789471945030505 0.0742986545714359 )
( 17.633376695187565 2.7664001069267243 0.0863120954675643 )
( 17.668824035167138 2.852082970022994 0.098159318627637 )
( 17.706137787737642 2.9349752670073888 0.1090882622856414 )
( 17.74247956428894 3.022192784533168 0.1208805369056832 )
( 17.778905700960966 3.111855682395373 0.1333317531359934 )
( 17.817189584440882 3.2006790218280408 0.1453069124646445 )
( 17.858380028014828 3.2852880790724632 0.1552507687313882 )
( 17.90034358147909 3.3700349765452717 0.1648473652297724 )
( 17.942870188028312 3.458562408057476 0.1757226783661895 )
( 17.253892459723485 1.9355456871283925 -0.0116452959106214 )
( 17.237908981665854 2.000262360270327 -0.0082349545958383 )
( 17.23315962743772 2.1312203562802394 0.0025618185173072 )
( 17.232570213564003 2.277290961087628 0.0175548588060763 )
( 17.22660218696927 2.3864268495279557 0.0305310763467583 )
( 17.21747904024673 2.4838682402963337 0.0432954148989876 )
( 17.212834922108506 2.579368753593294 0.0568429496056916 )
( 17.207853428719265 2.677654800023044 0.0716348133297828 )
( 17.206380834679532 2.774994021684788 0.0870181519299679 )
( 17.205459502208626 2.8703125539117518 0.1019985557452314 )
( 17.20284136745345 2.9747473775050595 0.1187022545032439 )
( 17.20016588370777 3.0840982017490126 0.1356291765676015 )
( 17.196373992590875 3.193302747145159 0.1523211431282523 )
( 17.19602025411578 3.3056659448325885 0.168867694630399 )
( 17.19773519933351 3.415792237949072 0.1845022700611185 )
( 17.201991351282118 3.520280935892824 0.1984880186932882 )
( 17.208054836216178 3.6165309868165743 0.2100417376707708 )
( 17.213269867292674 3.715195107298836 0.2211784415564951 )
( 17.223883616409182 3.8137011916130032 0.2319882652613998 )
( 17.113293263809283 1.9675964357090463 -0.0124019161402658 )
( 17.074760778713323 2.042111555502256 -0.0057329971674813 )
( 17.041673983498754 2.19042728198132 0.0100747761538105 )
( 17.00635593451254 2.3456418651420563 0.0298128826133267 )
( 16.967166062959 2.4568536609497724 0.0470696802131508 )
( 16.93270091824206 2.563178931606507 0.0645202782614798 )
( 16.902309246392694 2.6702715584836003 0.0818899083598391 )
( 16.865397541861675 2.7769666583391373 0.0995823944466191 )
( 16.83214142774159 2.886098824374652 0.1181096522516454 )
( 16.802256785503022 3.0030735512478515 0.1361019465800793 )
( 16.769727793016315 3.1253037882457684 0.1539142910667534 )
( 16.737019505454935 3.2556492690762098 0.1715745479653548 )
( 16.706113888972173 3.3899670190434823 0.1884608857879582 )
( 16.680068155119894 3.51909598759694 0.2029656823429575 )
( 16.658734324921173 3.6378530111287386 0.2143723059596386 )
( 16.641635051949915 3.743863804912836 0.2234947920475815 )
( 16.62420312794433 3.839481580279671 0.2301835815784736 )
( 16.606712805146483 3.935718346236606 0.2354304780403245 )
( 16.598244521821524 4.036164910675321 0.2396336905172813 )
( 16.973614675670785 1.983321684736237 -0.0057675550359263 )
( 16.913387963578046 2.0640105286889536 0.005861408756885 )
( 16.853555139406513 2.217815156304184 0.0264700522953369 )
( 16.786725154423113 2.375243117788605 0.0505406232374948 )
( 16.71751468500973 2.4898871608748743 0.0716503900988801 )
( 16.655286125831083 2.5999186423401675 0.0913590040510929 )
( 16.592492770248843 2.715077749498967 0.1108042800612729 )
( 16.52669202842844 2.8321717737522474 0.1289805144140197 )
( 16.46869300014422 2.9536021134456303 0.146489281827203 )
( 16.41515257995145 3.084489745655203 0.1624897056333092 )
( 16.358634146621903 3.2233731470713 0.1764642451519661 )
( 16.308170529862178 3.368684194613258 0.1890030014220881 )
( 16.264515037538278 3.514403816310077 0.1984596678822645 )
( 16.2212190898093 3.653822237470809 0.2049254335205961 )
( 16.180555625537092 3.77462324583818 0.2081899436461607 )
( 16.14481000951354 3.878604208724812 0.2092540356736663 )
( 16.11029360401399 3.973217539790191 0.208468608552412 )
( 16.074144963749532 4.069278158837131 0.2058999846994895 )
( 16.04227567431724 4.176493419691475 0.2027509365382881 )
( 16.840863212036307 1.983312746193845 0.0067630798786226 )
( 16.764556659041844 2.0693493431106997 0.0236653563519002 )
( 16.6765853478035 2.2273089149183947 0.0485936736567551 )
( 16.57955653954846 2.3814787240573927 0.0741240168250151 )
( 16.486714606250057 2.4961269507711634 0.0957306860630761 )
( 16.399617860160042 2.6094747796392634 0.1148887004223937 )
( 16.30983895121288 2.731053713139226 0.1323551325066218 )
( 16.22163929206611 2.855948731705174 0.1478923333163035 )
( 16.143041394742315 2.984231893879598 0.1606559280578537 )
( 16.066612648156536 3.1233575250875822 0.1704678472643752 )
( 15.9892982850951 3.2772576116047745 0.1779146606941286 )
( 15.917974788583033 3.435971442501645 0.1823602096144674 )
( 15.85148071060311 3.589903173808586 0.183027871089401 )
( 15.785686809854775 3.733524353340625 0.1812730361732547 )
( 15.721215683438524 3.8517984940217262 0.1772805692612098 )
( 15.659552646586905 3.958341098172574 0.1721969104943012 )
( 15.600926211242532 4.060421665723759 0.1660605245529969 )
( 15.543262139356624 4.162934468551946 0.1588164248565093 )
( 15.48601322744512 4.278459424441568 0.1509770058595776 )
( 16.71916527533909 1.9664609289716384 0.0235759321174967 )
( 16.625506461346088 2.0569663887339837 0.0438598507730723 )
( 16.50754417558641 2.220473688382333 0.0713773650575837 )
( 16.38577254936293 2.3711593497098327 0.0959263699222381 )
( 16.27415821487841 2.485334785472332 0.1150065534084365 )
( 16.16771406280793 2.6022504375893547 0.1315366970054129 )
( 16.061349061786224 2.725748410388514 0.1447700657618578 )
( 15.953205131243276 2.853885662803021 0.1553318184261008 )
( 15.84687548958342 2.988882670438734 0.1621569940371393 )
( 15.743582637372644 3.1415489151492846 0.1652630105235238 )
( 15.645830390014735 3.3046463843844767 0.1654015347834667 )
( 15.548497554005763 3.468689975158994 0.1618989105534982 )
( 15.455626526843394 3.628510354093164 0.1557516557978374 )
( 15.367252412411249 3.773266958468142 0.1482942326926523 )
( 15.27798095587702 3.893765534057304 0.1398405273644416 )
( 15.194995392440424 4.00027728747074 0.1313529544903837 )
( 15.113630999616513 4.10357357585576 0.1225869625618955 )
( 15.03175439712435 4.2085950932953855 0.113850365576509 )
( 14.94999575045452 4.328175246337088 0.1048684071971171 )
( 16.60103126764956 1.937054853432608 0.0428360196966813 )
( 16.489646283102136 2.032927751231293 0.0638909184560091 )
( 16.347671569406273 2.1990669073647022 0.0896411349080663 )
( 16.20619771454638 2.344155070819629 0.1116483880552943 )
( 16.078198197277256 2.4572827918600724 0.1275107434279117 )
( 15.950946499862528 2.5743640311425318 0.1400978990342815 )
( 15.824900782055323 2.700941212850094 0.1490022887266471 )
( 15.697587415899612 2.834786529855988 0.1535075107102367 )
( 15.566968592207823 2.9750161463364946 0.1540302251296999 )
( 15.443409203154108 3.13458692884387 0.1512497561749969 )
( 15.320865153325917 3.3040753597468893 0.1452335448717192 )
( 15.194636728960422 3.4741997796976776 0.1364704787526978 )
( 15.076706289223084 3.634098097598813 0.1265911814867872 )
( 14.963866023442678 3.776463305055952 0.1166468787498637 )
( 14.85010515913799 3.901264579723284 0.1064987904948956 )
( 14.74281811433858 4.006144388498867 0.0969579557901016 )
( 14.638862332506449 4.107440812618973 0.08813356350903 )
( 14.532448349486526 4.217218934121321 0.0792042576903812 )
( 14.426250426278813 4.340596820706869 0.0701044382434019 )
( 16.49186660725739 1.9000414284620613 0.0604521638681919 )
( 16.3631635586396 1.995928215885877 0.0806717273449139 )
( 16.200536220122373 2.1603901973937405 0.1033023334502687 )
( 16.040381553425714 2.3014737529123983 0.1215965861921097 )
( 15.893872119384374 2.414671303042564 0.1337145457598312 )
( 15.747400365248918 2.5352610130058157 0.1417872342235296 )
( 15.599883407624816 2.667264936039239 0.1451934513486166 )
( 15.453117854250417 2.802358684328345 0.1445769236738112 )
( 15.299616549908766 2.9451747330687907 0.1402527272332057 )
( 15.152382335061072 3.1115741984267125 0.1329411349611414 )
( 15.001902421315425 3.285577022783805 0.1229492426718212 )
( 14.850995043096622 3.4598954385277647 0.1117970135116906 )
( 14.70803485250304 3.621108080344849 0.1010087683624023 )
( 14.566353986430297 3.757900262702433 0.0901733388419579 )
( 14.433737244718444 3.876425165038439 0.0800114602225695 )
( 14.304207050865624 3.9814907133929247 0.0705788618454383 )
( 14.17678706805184 4.08657873489965 0.061783042139252 )
( 14.048716757236685 4.20245636182159 0.0528729492126244 )
( 13.921236333378086 4.330923417786678 0.043986280490577 )
( 16.390690737230507 1.850308983276408 0.0751072411556234 )
( 16.2436583008983 1.9418909780354532 0.0930953928711043 )
( 16.06031039899134 2.104963338579477 0.1124147812695425 )
( 15.88438082402651 2.2444393132375784 0.1269279756943978 )
( 15.717098028406491 2.3623229487035187 0.1350245171788184 )
( 15.554054198354692 2.484821015612671 0.1383830543944222 )
( 15.389442654247087 2.6161211791289847 0.1369485061879923 )
( 15.22330823013553 2.7583741434980027 0.1326555901184553 )
( 15.049955263023977 2.90850932671342 0.1248820991958109 )
( 14.869716408494185 3.074625391614826 0.1142064701936244 )
( 14.692760293433048 3.2512486477328912 0.1024683989526938 )
( 14.522115345582764 3.4249464972491324 0.0907878303626295 )
( 14.351044946222856 3.585694565739413 0.0795883042711274 )
( 14.18524694796164 3.721492256106656 0.0687269540610185 )
( 14.035147640277918 3.8356220486531942 0.0590653018873812 )
( 13.88465871573346 3.942744580997653 0.0496125562334824 )
( 13.73455945216936 4.049861868956231 0.0407852644218997 )
( 13.584633437614542 4.168047606910741 0.0326003702263718 )
( 13.433441603048982 4.3014022349961705 0.024633575570555 )
( 16.29041206266284 1.7965110636196204 0.0868802823814099 )
( 16.124706913511105 1.8908603687036272 0.1022597218005224 )
( 15.923556412318366 2.050978792965125 0.1176458134007338 )
( 15.734056744168765 2.1840580748928717 0.1276696132521445 )
( 15.551458253149963 2.306664262685271 0.1318722577186964 )
( 15.371917963557316 2.4267954987317424 0.1311023910882876 )
( 15.18646302164109 2.5530997912185325 0.1260031556582253 )
( 14.994317514564989 2.697559905483899 0.1180790330688712 )
( 14.802380790801838 2.849289163747285 0.1080985147425873 )
( 14.600928306606946 3.016767429562101 0.0966542136104425 )
( 14.400649835473502 3.2003064406011403 0.084556831678719 )
( 14.207564807709764 3.3774258840426854 0.0730429744709186 )
( 14.015240117063074 3.5333575604108 0.0619632475765305 )
( 13.832574843621831 3.66861159742462 0.0515313205498139 )
( 13.659986982519754 3.782814323537936 0.042239172584553 )
( 13.486284961355508 3.888255159255421 0.0334501289595611 )
( 13.3109934105486 3.995124014095164 0.0253425184464362 )
( 13.1381318648166 4.114346936870859 0.0175275137399036 )
( 12.966140513960635 4.253881613635516 0.0094132263791892 )
( 16.195809580371996 1.7429465860390254 0.0946477166852292 )
( 16.016160834553855 1.8409659175844184 0.1071788812544697 )
( 15.793663460562003 1.99556654855722 0.1191353921425707 )
( 15.592444481246536 2.1210688383658813 0.1246045888995664 )
( 15.396516761615503 2.2412099548525557 0.125063383420704 )
( 15.196588433865548 2.3604740815580763 0.1212792522682747 )
( 14.991696259396493 2.4829069510916217 0.1136154761173859 )
( 14.781510168905834 2.6216264471559194 0.1036655979889168 )
( 14.56787157475376 2.778293489230994 0.0927388103024161 )
( 14.34997589789805 2.949913422777596 0.0815761059653552 )
( 14.128761377598977 3.13355787165588 0.0693848089142466 )
( 13.908131782954422 3.316474421162079 0.0577223298674284 )
( 13.7009856177602 3.469813703601248 0.0474975725748143 )
( 13.502008114299594 3.603730367410005 0.0377215207838981 )
( 13.302763506416742 3.718920966169479 0.0288321395894727 )
( 13.103194116575905 3.822092895599319 0.0203715502477148 )
( 12.905417854496834 3.930063331918376 0.0121014144073589 )
( 12.714716871059098 4.052970262599918 0.0036898440963708 )
( 12.5226928264185 4.200172624153175 -0.0049348862723956 )
( 16.103131463324097 1.683770087869071 0.0988881219637898 )
( 15.9080812443812 1.783586655075716 0.1084521019340234 )
( 15.668111343128594 1.9362795925336629 0.1170924166049481 )
( 15.456307074273056 2.0538465582229506 0.1191051273737596 )
( 15.245626532693594 2.166423627356622 0.1166025489244253 )
( 15.02743034222605 2.285933737935391 0.1104401542499306 )
( 14.809814430769066 2.4137515335763022 0.1015595376271405 )
( 14.582773971075827 2.553703411818053 0.0910321606460673 )
( 14.349828722882927 2.712602746685214 0.079417853568945 )
( 14.112645004057017 2.882899561909989 0.0678252105703325 )
( 13.87158127853971 3.0620815557837893 0.0562686975862415 )
( 13.629906152473502 3.239744138567744 0.0453872622219403 )
( 13.400065787975151 3.3958638665100884 0.0353926609657825 )
( 13.178016004161211 3.535139031840815 0.0255313118169632 )
( 12.954311494468117 3.6493030351742 0.0165374961059143 )
( 12.736114143010948 3.748564901673957 0.0078902703502505 )
( 12.524214698473273 3.857690561344736 -0.0007396818843822 )
( 12.315796564215042 3.990301966157412 -0.0092574904326386 )
( 12.103227043046 4.14778990700442 -0.01698306386837 )
( 16.011187019688876 1.6147323868060903 0.1000675504519546 )
( 15.801131325225573 1.7156375494696807 0.106651310936754 )
( 15.551998925500062 1.8693977913243884 0.1120487756745828 )
( 15.326891420633274 1.986258987827125 0.1121371686731756 )
( 15.103377328453076 2.099864587015309 0.107938046353059 )
( 14.872388723277249 2.2196757879294755 0.0999582069098979 )
( 14.639998672682514 2.347781915311272 0.0900284961518197 )
( 14.39374038614246 2.484829994648363 0.0790568571315536 )
( 14.141908810155805 2.6380677002828854 0.0674641433369973 )
( 13.8891772855368 2.8099598972973414 0.0563806316048243 )
( 13.626853738324884 2.993902743239037 0.0453045218159479 )
( 13.36652245872344 3.1670194624955155 0.0346545778585858 )
( 13.111234522901954 3.321796166011006 0.0247617838805454 )
( 12.860831552244854 3.4594392226713246 0.014606257875023 )
( 12.62293367166706 3.5670493246418125 0.0051226131940055 )
( 12.395351448609349 3.6674133956817 -0.0032271736365731 )
( 12.166941054566124 3.783021237071501 -0.0111419140805609 )
( 11.935457886589775 3.922925010511281 -0.0185250525272399 )
( 11.69404576824035 4.094259957854438 -0.0245375259855523 )
( 15.924130936752412 1.5391764488889588 0.0981508419455912 )
( 15.706013314174044 1.6425152664245573 0.1023455217084706 )
( 15.443998884993157 1.7967189911114434 0.105124089956168 )
( 15.206252567782846 1.9146470546901075 0.1032874034385321 )
( 14.969022729951009 2.02952529695747 0.0979360951604626 )
( 14.72888213775493 2.144900554204888 0.089325911499315 )
( 14.48235206978464 2.270399873142705 0.0793099175136526 )
( 14.226123087890793 2.4065800472799084 0.068969190278212 )
( 13.956013934747892 2.555783041812733 0.0579845495020098 )
( 13.681184732734495 2.7278280959800485 0.0469065782129631 )
( 13.397855669779014 2.9140101704365 0.0354283332574737 )
( 13.113076531691096 3.0914082941665804 0.0246346456866308 )
( 12.8366238780104 3.2475777902421874 0.0149874750031782 )
( 12.571198193640328 3.375484305404534 0.005116747982674 )
( 12.31974814691576 3.4786295107294207 -0.0039470127655841 )
( 12.072486687049794 3.586725982272871 -0.0117244823900273 )
( 11.82216546441266 3.715315314916292 -0.0190640107011975 )
( 11.56147112291796 3.8578726388504574 -0.0249399724840942 )
( 11.281946577100488 4.034383459044051 -0.0293878026668314 )
( 15.841952248205049 1.466801832282672 0.0938490344755833 )
( 15.613091288216996 1.572976748597464 0.096451609508341 )
( 15.330902172743622 1.72810269953036 0.0975574029436107 )
( 15.083703916405792 1.8394499641212685 0.093565248657481 )
( 14.83990840948367 1.950237027333174 0.0876545808065835 )
( 14.593245494988288 2.0640966803221894 0.0793393921980759 )
( 14.333027718075376 2.186269842737015 0.0695509535207517 )
( 14.061308389276462 2.3233142895820813 0.0598156235470786 )
( 13.779092663001428 2.471093816292067 0.0494701347852767 )
( 13.485218459028449 2.638716580737748 0.0381572275840615 )
( 13.17746335817752 2.8255820664784506 0.0262802214050561 )
( 12.867526403056733 3.002815675164204 0.0158308829246393 )
( 12.570061358802368 3.160689431231301 0.00631193897229 )
( 12.29528462902888 3.285284198378397 -0.0032201175771777 )
( 12.031208080011448 3.388945759058878 -0.0113361674844485 )
( 11.762453070483218 3.502367519481773 -0.0185252478200468 )
( 11.48169927428684 3.636683153035968 -0.0249400420899696 )
( 11.185305644501565 3.791174106813543 -0.0296109293272343 )
( 10.883300216857693 3.988712160431874 -0.034620310404982 )
( 15.762741602277448 1.3982064349903898 0.0875325432393854 )
( 15.523420132590108 1.5051636585402748 0.0883671567359467 )
( 15.22879792131235 1.6581470651624766 0.0887231608000707 )
( 14.972304107307732 1.7611686598128629 0.0839564271346164 )
( 14.722636431742805 1.8637648559983448 0.0777272734071613 )
( 14.46734897976478 1.9832542125543056 0.0703544403222025 )
( 14.195919803815087 2.100604248185165 0.0611201601295855 )
( 13.90608962082243 2.22956680486608 0.0513831512786929 )
( 13.606728858136243 2.3813378024902394 0.0413963330907684 )
( 13.295216487679646 2.5451415707732488 0.0302936079428609 )
( 12.960315277514985 2.735301676232727 0.0187383966039771 )
( 12.624646816663049 2.9167426830726857 0.0079505247143754 )
( 12.317976558334724 3.0666544687436965 -0.0014704036068004 )
( 12.036920862859835 3.1883327794602145 -0.0093643465331838 )
( 11.756569835529309 3.297607085943586 -0.0169423184147911 )
( 11.46300726712801 3.415827811006616 -0.0239664731649741 )
( 11.148141648317546 3.5537744546514087 -0.028452596294036 )
( 10.81984955977367 3.726801179938214 -0.0340884768711349 )
( 10.5217875248588 3.969420182368105 -0.042738304716721 )
( 15.687891671168137 1.3313755530844291 0.0801196388181872 )
( 15.435992494103605 1.43476543344957 0.0791037636802531 )
( 15.134358465041991 1.5869246222406392 0.0793700241193631 )
( 14.875900466272856 1.6867054352974342 0.0748580375144527 )
( 14.61716679006278 1.785389384179763 0.0687975358119303 )
( 14.346553255551678 1.9017224218324127 0.0618491210013082 )
( 14.063097265272177 2.011996424572036 0.0530135162870945 )
( 13.767319551893433 2.138608173071105 0.0438230516843265 )
( 13.449687424537 2.291718661777525 0.0339680412401899 )
( 13.114029221717209 2.448810552609624 0.0228608201684787 )
( 12.767273996138575 2.6334681801147486 0.0123811301824029 )
( 12.413674379559568 2.8270189709293256 0.002056216350352 )
( 12.094187207305106 2.9749859010497435 -0.0067241108507084 )
( 11.796897259648782 3.090046108087696 -0.0138407828646427 )
( 11.48997066451632 3.2040901820310266 -0.0218898713143187 )
( 11.161419965450548 3.323410986948284 -0.0285049165039899 )
( 10.818320790067746 3.473291464962627 -0.0337578842516097 )
( 10.485279768848134 3.6761678134864137 -0.0424183265521859 )
( 10.209157807388245 3.971539621427824 -0.0520444650171257 )
( 15.613388941120848 1.2648565028690442 0.0715959952697347 )
( 15.353888583352427 1.3645576064793283 0.0700383630000434 )
( 15.045935437237722 1.5112812393592516 0.0701390953389729 )
( 14.78710876985561 1.6076110498643454 0.0658867358712787 )
( 14.521386111153053 1.7092036262768535 0.0606102533336008 )
( 14.237235273714791 1.8209941092023192 0.0543010048303011 )
( 13.94491989475556 1.920163168634457 0.0456063049549329 )
( 13.637236531401072 2.0482435181641327 0.0368036312791157 )
( 13.300842528690088 2.2030413475990294 0.0274085954117728 )
( 12.947133413717369 2.3616863303213425 0.0170311775776882 )
( 12.581187771542002 2.5361704451688527 0.0070779957048925 )
( 12.213679302184127 2.7157025397690635 -0.0024302703205298 )
( 11.880346012820953 2.8669568081219934 -0.0106975997759622 )
( 11.558057562470127 2.988903528511769 -0.0182730566209344 )
( 11.222840550440589 3.097906404325929 -0.0260466000336755 )
( 10.868920824412108 3.2210955616960817 -0.0327092138829897 )
( 10.50793361508053 3.3892923416480523 -0.0406088192978882 )
( 10.18975371326336 3.638971530465753 -0.0514282376353249 )
( 9.908024983669998 3.9895603290148807 -0.0606845574414193 )
( 15.544054875448916 1.1964828029303485 0.0617493996131138 )
( 15.27991640091984 1.2919559344829552 0.0604793919508862 )
( 14.963151830316912 1.4295273615027724 0.0607098972652496 )
( 14.703224124666004 1.5262040726828754 0.057275313631723 )
( 14.430774863879762 1.6256079776899246 0.0528979749993479 )
( 14.133709141164935 1.7354056070255193 0.0472159452278041 )
( 13.840430992035504 1.8348845393605877 0.0391703799996808 )
( 13.518539318994478 1.952898603127672 0.0304422647973558 )
( 13.160725242488958 2.105467515440609 0.0210974929355556 )
( 12.787132127666908 2.269336931992357 0.0115927745177838 )
( 12.39593012014448 2.442993072254036 0.0020446198555509 )
( 12.02276096147054 2.609457296244804 -0.0074275122548371 )
( 11.670534302726866 2.752473548983642 -0.0160146919731562 )
( 11.319523288000331 2.878110080373841 -0.0228756470238004 )
( 10.966617419612747 2.992376125228726 -0.0290459223331034 )
( 10.59740184329828 3.130857669950488 -0.0363535430676109 )
( 10.229280721315442 3.3262470007965064 -0.0468676056669494 )
( 9.91403647174865 3.616654147672568 -0.0587266946544815 )
( 9.535464223036206 3.969786838631863 -0.0687475850517598 )
( 15.483850221193132 1.128361010533539 0.0514338053244112 )
( 15.21011407807439 1.2148452877416496 0.0500748656517989 )
( 14.886730088129728 1.3468622864523376 0.0509838880142829 )
( 14.62267340120608 1.4435896643732458 0.048994827959234 )
( 14.344192142156617 1.54209269085421 0.0455514177156854 )
( 14.037893963211152 1.6533618999097797 0.0403932684260146 )
( 13.733280596692174 1.751123087476414 0.0335466180328429 )
( 13.405147937792568 1.8594616257708927 0.025423050930293 )
( 13.03627604831791 2.0031365536439054 0.0162890975972429 )
( 12.640838255317211 2.160575056316962 0.0066724468966727 )
( 12.229780309047875 2.33952129270038 -0.0033028379200638 )
( 11.843867228661304 2.509853884743827 -0.0129655914818859 )
( 11.46870234762193 2.6443894815337425 -0.0214487791687202 )
( 11.096971916330874 2.7628771829678915 -0.0278889460915279 )
( 10.719209713425322 2.895038430241513 -0.0329508462382426 )
( 10.33606911152502 3.0506979596782644 -0.0406512101922917 )
( 9.973565558995212 3.273988572888922 -0.0535633091239206 )
( 9.603636890079612 3.5917216876317446 -0.0639275082121552 )
( 9.049193426932762 3.879646098208836 -0.0729295888142166 )
( 15.424471140368334 1.0561679434024331 0.0403823873637118 )
( 15.14879214512766 1.1418938296299643 0.0399872890822669 )
( 14.824406256940444 1.267476428242154 0.0420198056815912 )
( 14.550780402378868 1.354650505543212 0.0409942796546113 )
( 14.265484288941815 1.4543422731490514 0.038409827266641 )
( 13.953879283348464 1.569122793338125 0.0342213815802101 )
( 13.636294911833906 1.6612221205514592 0.0286889136847362 )
( 13.30264558124468 1.7628468444274086 0.0213081713127673 )
( 12.9151589420095 1.902947900205959 0.0125562727868194 )
( 12.501962907073707 2.057273810522873 0.0025012723992974 )
( 12.075887699634023 2.231868281847989 -0.0082293111305823 )
( 11.662772635121886 2.4019873572379407 -0.0179449052050331 )
( 11.27565378094232 2.542035731836158 -0.0252726873935999 )
( 10.896990848433076 2.65852298494444 -0.0317324716531086 )
( 10.495115839176403 2.7987975352394376 -0.0385015379733389 )
( 10.09113922203217 2.9737913569039605 -0.0484936954478199 )
( 9.723417255360411 3.2211650743182965 -0.0597617676655155 )
( 9.260300515380196 3.542260347257007 -0.0682953069648098 )
( 8.435729383424997 3.7026087665518497 -0.075201025693067 )
( 15.367705703043535 0.9832577732290584 0.0289209787720464 )
( 15.09213083818251 1.070856176590563 0.0304645077538901 )
( 14.766027652528646 1.1933505133333762 0.0344613850444599 )
( 14.488567784513316 1.2761182415714776 0.0342340150750914 )
( 14.19334503463512 1.3714004482456044 0.0326408624315953 )
( 13.86860583431696 1.473831619754441 0.0291523310353278 )
( 13.542150800101115 1.5640014450284858 0.0240198281132186 )
( 13.202548476470634 1.662402977024931 0.0167029393008487 )
( 12.790137996870053 1.7997040291222066 0.0078017476126155 )
( 12.3602164674106 1.9585250397261555 -0.0018822363589623 )
( 11.93143530198762 2.1259408875440733 -0.0122806528263808 )
( 11.5067510425906 2.295498109435759 -0.0214559202874202 )
( 11.104286946773383 2.442680658533487 -0.0281678364009263 )
( 10.699062762732872 2.558219329865187 -0.0343452579548315 )
( 10.285612569590173 2.69826235255026 -0.0420116539530791 )
( 9.872092962516412 2.891896702808908 -0.0537737432502086 )
( 9.448844030184569 3.164240606679234 -0.064990248515221 )
( 8.910155535190661 3.476059062988962 -0.0747807980011967 )
( 7.647156665158979 3.4035788781384104 -0.0741292805174491 )
( 15.315009951154323 0.9182406211696812 0.0180183796061748 )
( 15.03493178980489 1.0014803077233934 0.021103732004874 )
( 14.708409594394752 1.11976875637355 0.0270924855929748 )
( 14.43134075373772 1.202700297477412 0.0283528257746085 )
( 14.126982276359778 1.2908182136764157 0.0276347117785748 )
( 13.796161116968808 1.380803852420986 0.0247739454557071 )
( 13.461632520359924 1.4741031386535026 0.0204181583639995 )
( 13.104761468236116 1.5774243463675424 0.0132606529438169 )
( 12.672943759066934 1.7046925555999004 0.0034982472062377 )
( 12.2219494556227 1.860919777917139 -0.0060672811666202 )
( 11.786877904410284 2.0205529449483284 -0.0153966805406782 )
( 11.362472864924449 2.175784444169121 -0.0243775843416399 )
( 10.943334204816308 2.3191427175042936 -0.0313440460601094 )
( 10.511166958725584 2.4447338201710966 -0.0377508488522209 )
( 10.079826326945314 2.593245993192346 -0.0443127302028005 )
( 9.652751230017133 2.802213755024009 -0.0544233224769137 )
( 9.15288683204434 3.088151759957144 -0.0669109048692293 )
( 8.404840776308552 3.314150992053108 -0.0746078383606105 )
( 6.8706287888897055 3.0665849896543755 -0.0676416289977075 )
( 15.2690349692188 0.8514583642907145 0.0078141478860384 )
( 14.985424374436793 0.9332462121359336 0.0125273441062992 )
( 14.653774463134022 1.047725914386349 0.020775052334717 )
( 14.374990950665753 1.123952649026408 0.0236837643596055 )
( 14.06562852747456 1.2110933488888962 0.02380459924183 )
( 13.735325001063735 1.304039276907148 0.020795994364719 )
( 13.398218110643946 1.395782520363823 0.0167680499159055 )
( 13.019478642421506 1.4933824605773405 0.0101431294908037 )
( 12.575579461868845 1.6163870463621428 0.0001948921347005 )
( 12.116471389238868 1.7672431409267184 -0.0090217561152344 )
( 11.663810920998849 1.9202447210795968 -0.018123517590714 )
( 11.21533363314112 2.0608414613917323 -0.0274904351982066 )
( 10.776185095627074 2.192311354793426 -0.0355809304417094 )
( 10.32966006325339 2.3231725696723178 -0.0436413347313935 )
( 9.885751350935507 2.48847496742014 -0.0505343556703539 )
( 9.426408804552713 2.7255358283158664 -0.0599725210620648 )
( 8.861991617803353 3.0026792404234683 -0.0694000754712175 )
( 7.841181488221798 3.077590731732093 -0.0703646261365823 )
( 6.192975421875882 2.745658707905721 -0.0631277455907338 )
( 15.228373487583692 0.7825624392977215 -0.0018633116341476 )
( 14.946569086003686 0.8643677688718957 0.0050356062602945 )
( 14.607952820412764 0.977172636928468 0.0156265580337866 )
( 14.322868390414088 1.0472066151142627 0.0199168359872311 )
( 14.007184908643715 1.1289192844644818 0.0201522004075724 )
( 13.673335882740606 1.221449332064229 0.0174480971894803 )
( 13.330430354813682 1.3008761572714729 0.0132548909151803 )
( 12.939812799670015 1.3948476479904846 0.0067240192179651 )
( 12.495621241894156 1.5273540718039007 -0.0024729612863664 )
( 12.02942213052296 1.672674561905398 -0.0120212279675218 )
( 11.554100843024289 1.823442436141108 -0.0223349358023697 )
( 11.081108478578036 1.9515487372096387 -0.0314741349052705 )
( 10.62296701102491 2.0717145040696923 -0.040355087465643 )
( 10.15214774437604 2.20532653175742 -0.0493727111977711 )
( 9.693985953201604 2.3801246752033944 -0.0568684987268994 )
( 9.180308705300478 2.632688557514755 -0.0670794784801445 )
( 8.532102045028246 2.8781921291572283 -0.0746040235464476 )
( 7.357572528438075 2.838436750245092 -0.0697961066811291 )
( 5.557773588700713 2.415093705488094 -0.0589773175153035 )
( 15.19336011878877 0.7234388467268354 -0.0098923457277293 )
( 14.911143449491496 0.7998586446178961 -0.0009741342491415 )
( 14.56806770917441 0.905030579911696 0.0108124692748873 )
( 14.277237472893878 0.9736582438778776 0.0154614056331066 )
( 13.956423151243946 1.0474374502110089 0.0159136102523382 )
( 13.620979124476822 1.1295413200703228 0.0143779891049254 )
( 13.264212357408615 1.2020106821837335 0.010268994977219 )
( 12.86431158681648 1.3025816040892635 0.004003724743086 )