/*--------------------------------*- C++ -*----------------------------------*\
| =========                 |                                                 |
| \\      /  F ield         | OpenFOAM: The Open Source CFD Toolbox           |
|  \\    /   O peration     | Version:  2112                                  |
|   \\  /    A nd           | Website:  www.openfoam.com                      |
|    \\/     M anipulation  |                                                 |
\*---------------------------------------------------------------------------*/
FoamFile
{
    version     2.0;
    format      ascii;
    arch        "LSB;label=32;scalar=64";
    class       volScalarField;
    location    "0.004";
    object      k_LES;
}
// * * * * * * * * * * * * * * * * * * * * * * * * * * * * * * * * * * * * * // 
 
dimensions      [0 2 -2 0 0 0 0];
 
internalField   nonuniform List<scalar> 
13597
(
0.1908782069754822
0.1914150864703359
0.1948145866203053
0.2020525073173781
0.2101163751849568
0.217920937138615
0.2262267202393438
0.2350268524950949
0.2441607170222296
0.2531021005682117
0.2625776299703799
0.2720825268464981
0.2803353075734491
0.2878719285942141
0.2946389012871655
0.3003101501308002
0.3052111017586554
0.3091338214254052
0.3128808634425344
0.1831366969181581
0.1850690690425846
0.1934801278469059
0.2085184126872879
0.2214149610786417
0.2334237500108583
0.2459603682263268
0.2585273678233856
0.2705716095921113
0.2815823626585627
0.2923666544637119
0.3021317198084936
0.3101718732395179
0.3169614952037667
0.3221898227901907
0.3259696994877006
0.328250276630083
0.3296162799525378
0.3308815937285578
0.1796385352203096
0.1847571375911031
0.1996071173926319
0.2208919471464989
0.2372565366373714
0.2522887862485983
0.2663622366443063
0.2792732884961058
0.2909111541039214
0.3006483313436311
0.3081890071886853
0.314168794212222
0.3185056854194205
0.3207068308380494
0.32141646779273
0.321048327261086
0.3193536128214828
0.3166995666148333
0.3134349050747296
0.1810075330250234
0.1902718015183016
0.2094592531966087
0.2335419713056513
0.2517201238751673
0.2670645766795662
0.280191760670427
0.2913434953833884
0.3000138089714853
0.3064378877969484
0.3089575101170105
0.3093571448638832
0.3080574056662021
0.305137189032526
0.3019589400155134
0.2983741621250995
0.2940823219801626
0.2897181030271089
0.285060543097216
0.1861863095477403
0.1984177286067827
0.2209391353470071
0.2462641277380765
0.2643625841458036
0.2789310132885139
0.2903327362445014
0.2987313667929615
0.3031193468048651
0.3042543652658617
0.3027831034051337
0.299627591997926
0.295138703508501
0.2901787075318915
0.2857877434842947
0.2817312297333081
0.277423360640254
0.2737318976716545
0.2703114327368672
0.1929576791276387
0.2073851104594201
0.2330620692945327
0.2590481840803944
0.2758813372718745
0.2891323510634711
0.2983821599633917
0.3033675315769641
0.3045552803818996
0.3024030450393352
0.2984857254567672
0.2932073536885512
0.2874436964685147
0.2821955067676693
0.278199741637134
0.2753804557778265
0.2731263637143602
0.2716728562175214
0.2713103214431506
0.2005809171192995
0.2177463109703151
0.2455994252342711
0.2709963073064501
0.2869480948376858
0.2983932466182797
0.3046592364306503
0.3065314771738499
0.3057279340222282
0.3017961444625109
0.2954968099336688
0.2889790890069294
0.2837274543880748
0.2799221681408191
0.2777483541779847
0.2774876901230726
0.2785456764609364
0.2808346543365765
0.2848268257143987
0.2093803764389506
0.2286209038182941
0.2581297158290188
0.2828110064758271
0.2973387967547182
0.3063761503454313
0.3099800389457698
0.3093671129090758
0.3061629646735966
0.2999815473415639
0.2924339062207566
0.2865852311040142
0.2834551481153419
0.2825150793964108
0.2835115104957932
0.2866168097195465
0.2913783509395193
0.2978914935932116
0.3062445589057745
0.218114520076723
0.2393361151487712
0.2699969230336262
0.2933154861887607
0.3063466172733637
0.3127980532790845
0.3130562678853004
0.3100194911106324
0.3046105280921198
0.2974996663456131
0.2907277325077024
0.286983703609779
0.2870089674245225
0.2895687853876996
0.2941575398474663
0.3006669527144363
0.3089583592299276
0.3192959061179426
0.3316011569791023
0.2279933879363925
0.251664650720807
0.2815059396546512
0.3022003622758902
0.3129950595288815
0.3162403744140029
0.3134232759343774
0.3079907500346586
0.3011888316694759
0.2947826807064128
0.290730704714972
0.2901198376294598
0.2935178341566238
0.2996427892068101
0.307738811359209
0.3177154477215164
0.3298375308267813
0.3440498057905897
0.360336134873072
0.2387257220099403
0.2625595739151871
0.2913054172452669
0.3090013782499631
0.3158725648937338
0.3159914771228569
0.3117892360553991
0.3051326581615887
0.2979988508779456
0.293057678201406
0.2919501666908224
0.2952508925094075
0.3022212858223368
0.3118700280340447
0.323916648499177
0.3380602423050215
0.3543564691913962
0.3722627887854274
0.3926096199103215
0.2488993745867667
0.2720249432629189
0.2988790079689142
0.3126839928277363
0.3160117112366885
0.3138039283600556
0.3083785222682906
0.3014578101347098
0.2953271192028401
0.2927852942704742
0.2949058141097915
0.3022032574350943
0.3131365610504565
0.327045380054312
0.3437280948128655
0.3618029571833355
0.38151010820869
0.4036141413369655
0.4285616009049044
0.2582927409458773
0.2806919906723271
0.3039197257885728
0.3138109774472121
0.3145130689024448
0.310150762843704
0.3037232394015004
0.2976534875050023
0.2940421538876662
0.2943334103499961
0.3002860788395034
0.3115605102162089
0.3267180267607481
0.3454135664086801
0.3658042245583056
0.3872711439507021
0.4113572810840321
0.4385067072257
0.467738571645742
0.2672716697782354
0.2866204333009047
0.3053851404897809
0.3119273023046641
0.3107288676651355
0.3053096427953749
0.2991604309486971
0.2948436543206303
0.2938953604910767
0.2973357292646117
0.307121180878343
0.3228419816649803
0.3426528047939056
0.3651763834598844
0.3890436449456337
0.4153196386218665
0.4450446957863467
0.4768118719882266
0.5103868394673654
0.2741521242289348
0.2889191836993559
0.3044459905760805
0.3077325044846116
0.3056365915682951
0.30068295388996
0.2955230917387659
0.2930312471714266
0.2946678350226508
0.3018272816007564
0.3157616960214924
0.3361515881777013
0.3608985861926738
0.3869288587987471
0.4150035695055215
0.4466625572621708
0.4815415555580969
0.5189325343015528
0.5629557527612091
0.2775842524434621
0.2888317374183649
0.3017475599008061
0.3026711901591417
0.299750246461191
0.2958558773004316
0.2927328646906622
0.2923135920442807
0.2967458024756298
0.3075233893845937
0.3263466909228682
0.3519927967301051
0.3804465062582448
0.4101614837666838
0.4431100605364856
0.4797576984112604
0.5206046349632854
0.5687932185017835
0.6334469082237428
0.2775936184521445
0.2867816022695514
0.297380262608479
0.2972786794443159
0.2941967041667939
0.2911833152801204
0.2902065097500342
0.292524420783004
0.2998279291843708
0.3146003556667454
0.337299310112962
0.3672610809891528
0.4000287095664595
0.4342028400759288
0.4723611694631469
0.515225762609986
0.565430919076429
0.6315672346431758
0.7182270739066056
0.2756669453543929
0.2825658483760193
0.2914352412892758
0.2912975099809862
0.2892736075742146
0.2878245441715075
0.2886172961936227
0.2935579555239004
0.3041798787000778
0.3226496569116001
0.3491928846091446
0.3830567239285402
0.4204466028741545
0.4600741689921006
0.5035533892684387
0.5533998178047929
0.6191028044668313
0.7076095850757232
0.7970550019028866
0.2725979551159287
0.2775094799724013
0.2850757738784168
0.2855060597521662
0.2848917583656569
0.2850468372192358
0.2876042088357887
0.2949253330979945
0.3088939653856546
0.3310440089759499
0.3624660843480246
0.4001007503643796
0.4417764500902141
0.4874336186599539
0.5369627739409117
0.5979957588843549
0.6843906813556444
0.7933633755701914
0.8618710275959104
0.2676197222390293
0.2709455045558319
0.2786173536956186
0.2801537392373374
0.2811058090706456
0.28281284692526
0.2873354477407506
0.2971929453828816
0.3141244030458897
0.3399633892070524
0.3760992851082704
0.4179077782423274
0.4639738163647348
0.5144232590444189
0.5742191019311468
0.6507729381435645
0.7589059792421363
0.8790113139701613
0.906701858828142
0.261384887983566
0.264124216579503
0.2721413881292902
0.2746346924923566
0.2771634289335304
0.2809469475492274
0.2879451245771927
0.2999725875998764
0.3197979150131486
0.3490898097108702
0.3896608138393729
0.4372909919985353
0.4877364770636893
0.5418535510866702
0.6129785170838207
0.7109175306718352
0.8404840324897069
0.9570582485880482
0.9062691729003568
0.2547243575410787
0.2577583701759772
0.2664332507942562
0.2702164256413517
0.274138051672239
0.2797750686804507
0.288976025755856
0.3028509738020033
0.3262160302139213
0.3594286914622667
0.4031260962395949
0.4544237723576701
0.5094174386005681
0.5718020787964536
0.65422631426336
0.7754514800015546
0.922904991086961
1.021870463863688
0.8434937297425342
0.247913728904726
0.2517188275981373
0.2613553956778995
0.2666325015490328
0.271805672802871
0.2791687187745653
0.2904727895049268
0.3066286520454312
0.3332087981455794
0.3708582229658859
0.4175850750398517
0.471047948006367
0.5299995112291732
0.6020722280452756
0.7034784548890567
0.8470168674815362
1.0035988246162502
1.0413617579675067
0.7702989839409872
0.2408246526657448
0.2456828491129813
0.2569932205141453
0.2633825560302556
0.26986454715641
0.2786756156160701
0.2918344705170219
0.3104827341193006
0.3397381123890184
0.3803233410361935
0.4306219902919242
0.4894690560106298
0.5536322137424248
0.6352204394437255
0.757215911599546
0.9218607093187852
1.0780611405891798
1.025881841279752
0.7034488205487711
0.234317458401132
0.2400608998333721
0.2533750963889495
0.2609160129031614
0.2682409477804284
0.2785701480972757
0.2934820714867241
0.314309133181777
0.3457900247963586
0.3885468138678244
0.4433271137123662
0.5071264547154752
0.5766532950450943
0.6735214610077436
0.8118212128583268
0.9903718373381712
1.1308929638529213
1.0027720233500377
0.6283044077708082
0.2291864229729719
0.2354040729256223
0.2497414979474522
0.2587150064305855
0.2671429769280389
0.2787798256006147
0.295538806655316
0.3184546778228828
0.3517301586652787
0.3978616823605089
0.4561537392405203
0.5229457609073856
0.599639814429721
0.710819086600571
0.8651132195594766
1.054827433816951
1.145574368598422
0.952096124858595
0.5706338264941158
0.2242636747612371
0.231088441655174
0.2461320474714431
0.2564678706512451
0.2664029129654449
0.279220224211377
0.2976864260822446
0.3228548144375654
0.3582638437721737
0.4076086173101306
0.468265547206353
0.537402066167825
0.6224505346623467
0.7451194188054455
0.9185040350548862
1.1125443475541712
1.1486262775129683
0.895985244687512
0.5234161792734957
0.2191885442089012
0.2272152365630295
0.2435958426020597
0.2549928355928667
0.2660783191083422
0.280151746935241
0.2999927979135873
0.3267812632536295
0.3644274936344692
0.4173854336842144
0.4809933784752723
0.5515357632606421
0.6435767896960729
0.7792988679514218
0.9755848190808156
1.167622058630389
1.1656918075090388
0.858262594182022
0.4829625447306545
0.2143397889731174
0.2237345089051594
0.2413025152895783
0.2537528296919427
0.26604922083781
0.2810346495579317
0.3019269974846274
0.3302629723040942
0.3702726007106603
0.4260980953467728
0.4913945204255398
0.5664357873183162
0.6707887120122376
0.816319359107908
1.0257349144243295
1.2086237819686412
1.1658466573765307
0.8238206097009769
0.4564510902506423
0.2101448220076699
0.2201509007091292
0.2389621550778712
0.2525823375775691
0.2660213530105533
0.2822710381326764
0.3039020813844544
0.3338041758267434
0.3763553512627153
0.4328852788206028
0.4991374598735423
0.5816974666216831
0.6953408671848736
0.8522804807881665
1.0683445708139123
1.204781907429444
1.1206790306592431
0.7899341511935455
0.4410379179082646
0.2065163759520366
0.2168643449939073
0.2370039977158221
0.2517575374621822
0.2659141191516008
0.2835529409947989
0.3063203903955414
0.3380602640954541
0.3823380500989828
0.4393605738838889
0.5077583387381668
0.5962168316157922
0.7122116378186397
0.88312088353563
1.1066783979135837
1.195440316891703
1.0741224653503578
0.7594356771272195
0.4303818379891542
0.2031870805055507
0.2143584634652428
0.2357006397483421
0.2513430110135048
0.2660909740274245
0.2844330233846114
0.3086473679148641
0.3423533753694305
0.3879282416831456
0.4463468957792071
0.5167713593077726
0.6086287838020479
0.7297960633596412
0.9197958839318644
1.142957969934611
1.208131343444515
1.0613582775122403
0.7337263173597568
0.4168635887691683
0.2004611338841112
0.2123434463429464
0.2342801657460048
0.2509593967470498
0.2666868554765278
0.2851397259228136
0.3100249101497465
0.3455437053522485
0.3930456816004289
0.4534459967281917
0.5257057443382152
0.6207875601902305
0.7468799503508073
0.9509586379262251
1.1773810241962783
1.2274122122914806
1.0606804774590382
0.7157708851700533
0.4017058687396226
0.198189801243721
0.2107329554107442
0.2328567092120811
0.2502685002716862
0.2671960290786602
0.2860795087876172
0.3111010751865744
0.3479458987392415
0.3972933189311738
0.4604491735082978
0.535724536989748
0.6328946097866474
0.7620404262234006
0.9729643486295612
1.2067097728452671
1.2476843302295928
1.0624504315697476
0.7049959888718936
0.3927749269934748
0.1964120053080178
0.2095384075011384
0.2320101842763349
0.2493467246149514
0.2673410740806953
0.2872614159932821
0.312517222316345
0.3499107472756411
0.4005567260018995
0.4659108811241073
0.5437185106079588
0.6429639306344024
0.7782253016849252
0.995737741898454
1.226877016539186
1.2568143255541484
1.0590278656812473
0.6952835940704026
0.3868963612435961
0.1949250024014942
0.2084362676860052
0.2312288562900715
0.2486708872675937
0.2672946812002484
0.2881102213750275
0.3135615564385314
0.351606581453711
0.4040400438620604
0.4700656068245293
0.5495831531027467
0.6520185254712426
0.7928893481680865
1.0122364466221292
1.2419509693433466
1.2646167900334169
1.0532641268236556
0.6845168981372105
0.3798592619244699
0.1933335108335719
0.2073510279481743
0.2306351985771346
0.2482458851775288
0.2674787982740769
0.2894716551923352
0.3156152300304231
0.3538800181443552
0.4076155756278866
0.4745721067088399
0.5554411455407287
0.660927155996594
0.8051036916215587
1.0263937033034023
1.2545310504523612
1.267927831637467
1.0524299608394867
0.6816319814474094
0.3743062159239853
0.1919699863448101
0.2062094664256765
0.2297953600494345
0.2478623258440839
0.2676531934715763
0.2904566195798324
0.3178480110014828
0.3562988252821704
0.4108336062073883
0.4783790870985326
0.5604579276218883
0.6686127083694379
0.8198020351974271
1.0428764679727214
1.2600124446743777
1.2670048162645997
1.0474520581648004
0.6791227783344288
0.3712831069145097
0.1908345977071492
0.2049962379904187
0.228674119574639
0.2477424879356284
0.2681033205936114
0.2909252077099999
0.318928231242835
0.3581130092690114
0.4137858709923016
0.4814023887868502
0.5645348221907152
0.6747520673538521
0.83521616836793
1.062904204022597
1.26293064070612
1.2621327005052785
1.0375370951831209
0.6721585315123808
0.3699775724308296
0.1895845363852726
0.2038386963336513
0.2280158026816178
0.2479148779450153
0.2688879787788917
0.2917873129194877
0.3199645118843531
0.3596029382912226
0.4156609771285143
0.4832320625269243
0.5673295011452231
0.6795500668003324
0.8439050807517094
1.0772344081949956
1.2667755811952863
1.2541945498118452
1.031416817581097
0.6682159118194823
0.3694316251270795
0.1883022242649706
0.2027463702816783
0.2276811056896647
0.2480129336410162
0.2693783306528107
0.2926048074279138
0.3208183967325035
0.3609299404276307
0.4176517801347834
0.4861868973316918
0.5706800147710558
0.685285023453385
0.8513425374277289
1.0847400762686503
1.2666350617733926
1.2443411903447463
1.0227725075826877
0.6632393482752381
0.3691272326597439
0.1874860817734336
0.2021516532098321
0.2276156295277996
0.2481132648573581
0.2692557666039878
0.2930820464927574
0.3217880340710253
0.3625040785524399
0.4205369738884021
0.4908465138866021
0.5750793006661504
0.6909258637791095
0.8582296870570167
1.087971375503523
1.2657306778619124
1.2391358010795643
1.012959931210784
0.6553677631447683
0.3673479469661396
0.1868294790106487
0.2019381499167508
0.2275829238645255
0.2480511414750978
0.2692718509355976
0.2935325632543948
0.3229394931050952
0.3637554706301283
0.4218145971981869
0.4934411452213139
0.5784243014797187
0.6937496910536285
0.8586900848277123
1.0906354944800107
1.2712666806817308
1.2374049461047667
1.0038338660130508
0.6477838682970019
0.3632334647311745
0.1861499111490944
0.2015060849540597
0.2270443839295064
0.2476274363666609
0.2696256798443847
0.2940838227996831
0.3236743232148438
0.3643419701719579
0.4229813273647572
0.4961964731023177
0.581727899986693
0.697328014856149
0.8610447318267846
1.0946221458045138
1.268429715934268
1.2268351984181252
0.9955227697550836
0.6431154437138491
0.3610677986811079
0.227063377565393
0.2237653371981538
0.2177694494387048
0.2118005613013743
0.2091768989452174
0.2080150995281598
0.2074172339239095
0.2069412771406879
0.2082419560195352
0.2104940389894665
0.2126499401658429
0.2157436483762808
0.2181416391991483
0.2201262601728599
0.2225423909004074
0.2241564194437559
0.2258267485909117
0.2276883969527136
0.2287492128112778
0.2510458534529766
0.2482868686037752
0.23818669728284
0.2300012744447163
0.2267464248211169
0.2250785853454942
0.2249564635048609
0.2253710915755767
0.2264280261401635
0.2286612653316907
0.2321299612252358
0.2372109689814589
0.2425191398934983
0.2474951422173271
0.2526884710573413
0.2576038482522961
0.2626143720385333
0.2674607958425326
0.2705374498972488
0.2656087724653913
0.2604574855923003
0.246744085842093
0.2376284060647646
0.2340727370161728
0.2328597997427703
0.2334416488441509
0.2349793017208939
0.2383690940322393
0.2441687434322783
0.2518194287708493
0.2601671570326753
0.2698418863288616
0.2793986993726559
0.2877483309361613
0.2955700366383435
0.3015428422355199
0.3060106595889151
0.3093293928179527
0.2716137168756012
0.2629391613912382
0.2473278335755676
0.2386165390241424
0.2355884297274453
0.2359437736041957
0.2394933787593219
0.2449402614365358
0.2524152132852321
0.2619762612976702
0.2737876631323129
0.285574100247306
0.2981925241107085
0.3099454208711874
0.318281426739974
0.3252130216422511
0.3306248996631664
0.3348645998132276
0.3384861303374604
0.2701692185796055
0.2584716495908937
0.2441571988606897
0.2382360935556156
0.2373594588897028
0.240492614316662
0.2481361467908086
0.2577951231117038
0.2692689995811186
0.2827646675527415
0.2978468533395107
0.3123160283750996
0.3258992434956559
0.3376008907526484
0.3457831233307826
0.3525695169780182
0.3580994200415995
0.3624177340833857
0.3654682035950539
0.2649640367763474
0.2519292105893019
0.2403903568475277
0.2384059851060691
0.241027666180361
0.2482237278707369
0.259097071527175
0.2723856101416867
0.2874788556578323
0.3036316666535251
0.320126748497316
0.3355792441978829
0.3490953573210006
0.3596503899636205
0.3676763480159851
0.3738036988327852
0.3776312663158049
0.3801986108297116
0.3816159623884256
0.2596832887500571
0.2466185180519758
0.2375784102516819
0.2400747739926925
0.2470720660974791
0.2575563668600527
0.2711976242030739
0.2864856328894938
0.3034959290571851
0.3210003462504733
0.3377894714663088
0.3532793975690751
0.3658418986413494
0.3750324925284789
0.3815374845383804
0.3858314600026113
0.3880638146875049
0.3891346112538396
0.3890464771064892
0.25453921744888
0.2425815438238682
0.2375679887126831
0.2435006327786905
0.2530969339053534
0.2659519192476318
0.2819253437280668
0.2980859315752654
0.3159329051114572
0.3339972429958364
0.350670899902295
0.3657758748427836
0.376823139585259
0.3843641835169136
0.3891110543039759
0.3921451241329986
0.3935631710011933
0.3941270202280487
0.3939260548881477
0.2509381803536236
0.2407065339365205
0.2390946688019548
0.2474467643347073
0.2584639844504799
0.2726031233673613
0.2897843012299249
0.3081802383353513
0.3265057208515501
0.3440104606502905
0.360236080397587
0.3738870010991807
0.3834613837858242
0.3896719425866808
0.3936951371166863
0.3964835782435101
0.398404025470321
0.3999388094873195
0.4011392752451134
0.2479920099525579
0.2398083353944862
0.2407337461922453
0.2505739986811618
0.2632563783650031
0.2785989218756313
0.2965047881929037
0.315687181287992
0.333947272914294
0.351732894364777
0.3668200942823011
0.3787227456841711
0.3878332829826549
0.3940415658488678
0.3985075936282831
0.4020930718002384
0.4058358384526567
0.4097149816956751
0.4134445779409329
0.2452324040496953
0.2392931536893464
0.2426458078116844
0.2536035478029386
0.2674604144881822
0.2841616647103326
0.3022012208603566
0.3210003155873049
0.3393508031349201
0.356676170504935
0.3709484626096873
0.3826509364114148
0.3920186210312044
0.3991682031201347
0.4054141099041988
0.4110629622474667
0.4172573564483695
0.4238273287593929
0.4307215133332352
0.2440187099915578
0.239471139391062
0.2444187063524112
0.2558112388557767
0.2702497721479858
0.2879995299566809
0.3059735780775311
0.3250334029800716
0.3436572153386361
0.3601415682324914
0.3751487556657997
0.3875508244073301
0.397341317869294
0.406146262212988
0.4148709688899583
0.4232238557576794
0.4323550055978602
0.4424886894687397
0.4536671606115836
0.2429957620410286
0.2390771257232452
0.2452638242637746
0.2572257116646861
0.2725582848056757
0.2907618801685886
0.308911870641566
0.3277083478051602
0.3463730895747493
0.3633225637191692
0.3793012529120718
0.3932580002339307
0.4047549665366231
0.4154636622622628
0.4267856799254305
0.4386183601007218
0.4516986355418303
0.4669572668798048
0.4841891597228674
0.2419011720230544
0.2381263997489073
0.2452024678400794
0.2584236305265334
0.2747706334485034
0.292545859238806
0.3109154245701186
0.330075088381933
0.3490511276705071
0.3669146329326526
0.3838502754407727
0.3992173315725116
0.413605152611775
0.4269248954601204
0.441600638464287
0.4584762558573379
0.4765626068059757
0.4973511980804896
0.5216034016578331
0.2410851749503991
0.2372002012664696
0.2447773261003636
0.2587671340913657
0.2752528989777327
0.292926553377947
0.3121766709914785
0.3321073225216966
0.3519197679090682
0.3710675920859137
0.3889531474271933
0.4061901926404176
0.423847409388751
0.4410594941221267
0.4597372515614998
0.4819455939993018
0.5063817529182112
0.5343269374890136
0.5717037107320286
0.2397953787137373
0.2360821561617237
0.2446085287951102
0.258458537830308
0.2750939396057797
0.2933218647051092
0.3137667880462674
0.3343344687781187
0.3541027879667204
0.3748385806479596
0.3947064242608322
0.4151153454579309
0.4359339466472685
0.4577338049717784
0.4814342296304114
0.508209768136442
0.5402671590502361
0.5811745052900065
0.6390758782138569
0.2378497352583926
0.2343089832052364
0.2440030237550537
0.2580203130765937
0.27533683009382
0.2940464087183511
0.3149005447180876
0.33629884306022
0.3571330600864489
0.3792831793429934
0.4014399528667705
0.4247438618654524
0.449057165194959
0.4759739395035304
0.5055080829267433
0.5387333949427638
0.580750861312731
0.6405844569323337
0.7165029428547358
0.2349804382427123
0.2317985216852241
0.2427775507521729
0.2573354512133982
0.2749262945927653
0.2947767923734925
0.3162941909399862
0.3381521903944137
0.3609585034401581
0.3844842709642109
0.4089210698991189
0.4360934189080849
0.4646905061894174
0.4966110649655329
0.5318650603711303
0.5743245673455212
0.6319550882053347
0.7158587615074268
0.7945797441320561
0.2313328137295121
0.228930074432609
0.241313199990003
0.2562484386217379
0.2742229587524096
0.2948195618950156
0.3175216511302254
0.3405532930658785
0.3643878765591021
0.3894016600104582
0.4170632277018066
0.4483355697638249
0.4817701217504859
0.5188855503595179
0.5610121543728789
0.6166272413487883
0.6949523044984451
0.796745592216259
0.8500976214676397
0.2273501772072384
0.2259963928194363
0.2395415251975627
0.2551406035624067
0.2739780755192632
0.2948532135145456
0.3178733196253045
0.3423165518946789
0.3677045171541559
0.3946647196553981
0.4261878829726472
0.4617279665547688
0.5003551565354104
0.5437913167574665
0.5943290971936641
0.6642385472047064
0.7670953482800493
0.8712347315850411
0.8792207009577466
0.2234333527471736
0.2234027746099944
0.2379351326535178
0.2545052751811036
0.2738531071470374
0.2949469146809156
0.3188114322782054
0.3444491628405321
0.3708106154379706
0.3999669855712914
0.4357864847547908
0.4769526469905204
0.5203877562335433
0.5704680503927902
0.6323788473893324
0.7197956830322048
0.842439373369991
0.938536447304781
0.8757339533143446
0.2197784090511762
0.2207900613920902
0.2366522772017939
0.253837519377062
0.2735840233432563
0.2951006313199672
0.3196105597665877
0.3463465826141322
0.3740865865911971
0.4059142199720796
0.4452132067928623
0.4910671970943109
0.5404649172497381
0.5973308090139535
0.6706959062344656
0.7828275431292582
0.9242157176843088
1.005394541159525
0.8155951385902674
0.2166633984999238
0.218062895489827
0.2348588445935861
0.2525861173436985
0.2730132297155602
0.2952892786058755
0.3202127878869005
0.3475914378503923
0.3777538024676156
0.4129012649689031
0.455315552259433
0.5060863737224569
0.5626082232962003
0.6274620822864666
0.7176925618111097
0.8540381932814715
1.0030281005833876
1.017505905399023
0.7389768918768478
0.2135214893582038
0.2155705875606285
0.2330750809219948
0.2513800740357519
0.2729257007321404
0.2957363022597248
0.3209140896028398
0.3488189073963146
0.380999987033456
0.4202015765105954
0.4663033605142926
0.5215246861495363
0.5844022712975828
0.6596754152829666
0.7701647083500527
0.9272556288404288
1.0651906277481535
0.9879332126616744
0.6762389463289852
0.2095900404077594
0.2128830210613361
0.2319835548065374
0.2508647681452455
0.272751074047444
0.2958416422108296
0.321232100297685
0.3502313900412776
0.3846894103185154
0.4276981528488311
0.478178337374428
0.5375345856469856
0.6064499992305902
0.6958456303054996
0.8238311566008409
0.990306344784322
1.1050136380105418
0.9681419241063148
0.6135931506033346
0.2057179182405003
0.2100617848222304
0.2310439085825019
0.250614845178162
0.2720734954848848
0.2959918295447923
0.3223689469555492
0.352140951763876
0.3890427506999476
0.4347798070062739
0.488871064093563
0.5536956264955816
0.627180380193555
0.7293987978704004
0.8766265135179909
1.0457819525693146
1.105531718212803
0.9143986832032708
0.5560162439648417
0.2025412769019635
0.2076432594599774
0.2295265977527043
0.2498156328424066
0.271565311431296
0.2961433026158447
0.3234938223414396
0.3538835374673052
0.3923700279255949
0.440454127780237
0.4992054645118564
0.5696963695432252
0.6487310046019026
0.7599984338431289
0.924811813054393
1.0989007084961024
1.1104261409653309
0.8640487195277785
0.5079132958514966
0.1994902523447315
0.2055528516813348
0.2281222567180721
0.2491815390509683
0.2714680309048505
0.2960426397674942
0.3235828140681823
0.354993778461552
0.3949907733208989
0.445733040811258
0.5096736159185817
0.5837314571154965
0.6720996990843651
0.7963485775107484
0.9773374902350236
1.1554572920142585
1.1342083070672893
0.8391662987477242
0.4763263289452748
0.1967662209278299
0.2041362620539617
0.22777767209466
0.248858172448407
0.2712270494808275
0.2958611538165141
0.3234831619408486
0.356598805720196
0.3982966842217876
0.4519105528382008
0.5187177265334327
0.5961619886827507
0.6947998090318239
0.8316094395023791
1.0216440358071188
1.1846363682158094
1.130855746541952
0.8114578034636686
0.4552784703814338
0.194207355882399
0.202955752153644
0.2275455724627116
0.2485115007506744
0.2705113818271627
0.2954803086859046
0.3238632569281646
0.3585018160186283
0.4009368167233821
0.4569875646954562
0.52725056782306
0.610865610611275
0.718477065854237
0.8605785559114469
1.0568938629613205
1.1825584046515385
1.087156042375275
0.7703618515619459
0.433924383675387
0.1918884619802474
0.2018798465852876
0.226815532144789
0.2479371138764772
0.2699028376295708
0.295015464469641
0.3242249709669335
0.3603697175525343
0.4035972154700823
0.4613775871418773
0.534682536058193
0.6227977214583715
0.7341844143999812
0.8855725221626228
1.0956374608843145
1.1836103820909425
1.0443500464495692
0.7313344986149019
0.415348572281484
0.1900601835109705
0.2007751890260606
0.2261279144776501
0.2474383552936629
0.2697373495194812
0.2948087883356549
0.3244729816566252
0.3620096002923177
0.4073420989703938
0.4674454346627629
0.5423058329864358
0.633084545420327
0.7480327182222741
0.9132179975217684
1.132122328397048
1.1990760299949903
1.0333287965268427
0.7063663250658918
0.3999037550828523
0.1887414576990658
0.2000999892059024
0.2260510915265
0.2471947789008801
0.2698256140077386
0.2950961800515401
0.3248348400916083
0.3625672328738803
0.4097915333679656
0.4730654423713228
0.5507824227131757
0.6446498376739932
0.7652452735292746
0.9437882282767952
1.163781063908542
1.2209526474730286
1.035778438341114
0.6902593452908103
0.3932211002917092
0.1876145021978797
0.1995646252377638
0.2257530123385858
0.2470183339528775
0.2701803726621732
0.2956462168575888
0.3252752755654413
0.3631189821085896
0.4116833350986593
0.4761150753968889
0.5551671318293971
0.6531401160612271
0.7783172202996332
0.9690985326748096
1.1874091324693146
1.2331206954978104
1.0386401258225164
0.6786639031622053
0.385652431658868
0.1867364366432318
0.1992234499353405
0.2255705265648515
0.2470515750648441
0.2704879378863963
0.2963983258850622
0.3256549464170992
0.3635001303270072
0.4145410020409382
0.4794050392945477
0.5587139571919831
0.6607674313339391
0.7878652725245825
0.986134555189532
1.205510325479849
1.245272010493231
1.0409444015155476
0.6674187728294347
0.3755358219888658
0.1862836388758492
0.1992699280124178
0.225823861620869
0.2473372800320951
0.2703719249923525
0.2963344755726859
0.3256785264128403
0.3642478044767122
0.4171001732868407
0.4827839923121712
0.5645109754149873
0.6681891820592631
0.7955086565399578
1.002609675587143
1.228897933496195
1.2593111469385052
1.0373187786042806
0.6602543084085619
0.3716991592645056
0.1857889672661054
0.1991439812977893
0.2258818601022102
0.2474916776219118
0.2698251906880134
0.295755548669597
0.3255617983076651
0.3653344268011915
0.4191874562272242
0.4853081764459492
0.5677858972091228
0.6735879013950304
0.8058339342252686
1.01938825527202
1.246935268220274
1.2672307424460574
1.0343808189657069
0.6587639952474783
0.3718737648024533
0.1855286708891396
0.1993655820027515