/*--------------------------------*- C++ -*----------------------------------*\
| =========                 |                                                 |
| \\      /  F ield         | OpenFOAM: The Open Source CFD Toolbox           |
|  \\    /   O peration     | Version:  2112                                  |
|   \\  /    A nd           | Website:  www.openfoam.com                      |
|    \\/     M anipulation  |                                                 |
\*---------------------------------------------------------------------------*/
FoamFile
{
    version     2.0;
    format      ascii;
    arch        "LSB;label=32;scalar=64";
    class       volVectorField;
    location    "0.004";
    object      U_LES;
}
// * * * * * * * * * * * * * * * * * * * * * * * * * * * * * * * * * * * * * // 
 
dimensions      [0 1 -1 0 0 0 0];
 
internalField   nonuniform List<vector> 
13597
(
( 17.1344984552233 1.6562159093638205 0.0383292972306557 )
( 17.13212687759867 1.6963332507800095 0.0421805211365992 )
( 17.13694175031259 1.777590088129368 0.049607228601348 )
( 17.148185733491232 1.881548850546474 0.0580752388358577 )
( 17.15852783036989 1.970235162765276 0.0638117555842664 )
( 17.163148840034495 2.043522478307558 0.066271601692187 )
( 17.17060159032758 2.1155154045024736 0.0678172388585256 )
( 17.18134357835222 2.192473750557434 0.0686062123709408 )
( 17.19446209091905 2.2700881815281684 0.0676487116472077 )
( 17.20907989938096 2.347792350261884 0.0657925003506612 )
( 17.224314602580506 2.434953214290307 0.062783294803427 )
( 17.244360870120193 2.5224066028169503 0.0581570627356717 )
( 17.268161952337454 2.6076943907433305 0.0529027020594914 )
( 17.292619829021877 2.6988609513859245 0.0468400720466548 )
( 17.31741479735465 2.7932948448948287 0.0402949159398609 )
( 17.34600961645619 2.8865738178775584 0.0340867039087142 )
( 17.378997604383528 2.976696800118324 0.0281004792191548 )
( 17.41375661840519 3.0671254218072628 0.0224734116303866 )
( 17.450103249276868 3.1606024844072658 0.0166194913274369 )
( 17.019197265817596 1.6831472247960495 0.0328775552442852 )
( 16.997562032552676 1.7315336247937836 0.0371215002951306 )
( 16.973306277127524 1.833008413164108 0.0457969940305779 )
( 16.947819578047945 1.9485672332231103 0.0534919765404209 )
( 16.923877755779447 2.037705435237677 0.0572908406519854 )
( 16.89918975143789 2.1212371393364484 0.0591756576479959 )
( 16.87875600813574 2.206123787668213 0.0592878189400049 )
( 16.859355224278527 2.2953912413751243 0.0576707732702209 )
( 16.844271932237465 2.387651648606159 0.054380685480028 )
( 16.830589596959683 2.48065941664256 0.0500323422041415 )
( 16.81657191746171 2.585085015842452 0.0446127882192846 )
( 16.803244935561636 2.697468073184529 0.0376451227993142 )
( 16.791025607525857 2.811232879208785 0.0303652458439293 )
( 16.783557757167312 2.92948108869946 0.022524509884376 )
( 16.77991739218593 3.046647504223111 0.0149118207903984 )
( 16.780924268884615 3.158275800040489 0.0089304690651802 )
( 16.784571719378746 3.261686936011604 0.0041253550015449 )
( 16.78905824916272 3.367530478426762 7.220691482507457e-05 )
( 16.79972552100023 3.4729007351842305 -0.0031204631556721 )
( 16.897501591630405 1.6959271240939475 0.0266348243089488 )
( 16.850392106861346 1.7482570585648087 0.0304324186222163 )
( 16.791498674075 1.8600795318991377 0.0383871230908093 )
( 16.727877007406942 1.9804365214399369 0.0442745964098377 )
( 16.67079642680901 2.0699837022372503 0.0455060834728402 )
( 16.620452147408795 2.1615564825514886 0.0447122729156345 )
( 16.574920976966233 2.2586805072993914 0.0416341643208667 )
( 16.52664489261171 2.3584454594299413 0.0361702313865989 )
( 16.483556470164338 2.46599984603042 0.029062714395333 )
( 16.44383549012493 2.5841591737015266 0.0209858327776367 )
( 16.40455778178017 2.7102312701152544 0.0120230341710722 )
( 16.367452858174158 2.84791994576573 0.0026581803159443 )
( 16.334124004578683 2.991670072203682 -0.0060755227529218 )
( 16.306714513451535 3.1307667709189837 -0.014010917023134 )
( 16.284852181001394 3.258909783082383 -0.02055580003708 )
( 16.268218987479283 3.3740222218487324 -0.025164309809681 )
( 16.251485554744104 3.4779526002673937 -0.0286170541914024 )
( 16.23530500726248 3.5821108745635266 -0.0313752428004825 )
( 16.228067642924838 3.690570666569253 -0.0326676399602394 )
( 16.763263680060536 1.6932481547615177 0.0184751363267736 )
( 16.68803486063423 1.7470091178675065 0.0208447835733273 )
( 16.597936666470584 1.8608063475051568 0.027456196917583 )
( 16.50182638834277 1.983021019581984 0.0311862954152887 )
( 16.414257551764432 2.077676859032715 0.0287578868591825 )
( 16.337386765766865 2.175410449869304 0.0236733391661732 )
( 16.262509262772745 2.284075634764347 0.0158300369670187 )
( 16.187629459875083 2.3982153424542805 0.005929670194934 )
( 16.12296867270255 2.521802437152556 -0.0045652946587034 )
( 16.06304798459438 2.65854508113014 -0.015447764221299 )
( 16.002373168308118 2.806544008708294 -0.0264122731640763 )
( 15.950607785157027 2.9629226346873154 -0.0359566250687072 )
( 15.90507958444748 3.1202547972916066 -0.0436178469533809 )
( 15.860140204168587 3.271655306888392 -0.0495711106318457 )
( 15.817988977078375 3.4022442661565 -0.0536514788721462 )
( 15.779535290194683 3.514450576657066 -0.0560114678374204 )
( 15.742654001748374 3.616479143321457 -0.0569259943737444 )
( 15.70321057901955 3.719247224645797 -0.0569597353979436 )
( 15.667440106756796 3.833393562686167 -0.0561032957374532 )
( 16.622074826390584 1.6767772307360458 0.00964985493217 )
( 16.523525643274656 1.7331533798297372 0.0112970664257402 )
( 16.40368037650953 1.8499397832887576 0.0153540252598036 )
( 16.277938182605578 1.9716678301528712 0.014642850030116 )
( 16.167557364967553 2.070845491231065 0.0075198698555365 )
( 16.067559096324647 2.175798339853325 -0.0019520656289597 )
( 15.966933823933248 2.294888272799602 -0.014177846500354 )
( 15.871663753077822 2.4218174850234004 -0.0269583742449296 )
( 15.78743226591113 2.555632761938724 -0.0384829234457068 )
( 15.7055012292356 2.703225996035425 -0.0494168350156975 )
( 15.622758884688013 2.86752305376246 -0.0592242751128736 )
( 15.546725733084894 3.0372233875595334 -0.0664494456301642 )
( 15.474959604036249 3.202133564149512 -0.0707026234516313 )
( 15.402505330699109 3.35616045748715 -0.0728912782035305 )
( 15.331050749983165 3.482410098527567 -0.0735157639538808 )
( 15.261730401757116 3.5952540087268847 -0.0727272873146317 )
( 15.195912990459195 3.702698835884216 -0.0703387246696558 )
( 15.13024661892285 3.8099899769788608 -0.0665916508778409 )
( 15.064404284489648 3.930546248296425 -0.0617498905431791 )
( 16.48023632110013 1.6472592119008995 0.0003048770382625 )
( 16.359326685764437 1.7068678624980105 0.0007042389480511 )
( 16.20938763018149 1.8297585616765517 0.0007092397325714 )
( 16.061794894309383 1.9526874699189851 -0.0051539770531065 )
( 15.935059668544817 2.0564718469481527 -0.0162576674348154 )
( 15.81750301024264 2.1692165770609453 -0.0289789182116908 )
( 15.70120425481036 2.2935386955109167 -0.0425235334127681 )
( 15.586483646524544 2.4266852745128777 -0.0554289659493337 )
( 15.472823799608554 2.568184347611583 -0.0660926500273994 )
( 15.360877871801232 2.728837885561171 -0.0752263917871128 )
( 15.253979208141727 2.900319647109806 -0.08187168343279 )
( 15.146464744913 3.0728959396628466 -0.0846041429184902 )
( 15.043716380936791 3.241807099221839 -0.0840385967402123 )
( 14.944863026971245 3.3937225103850075 -0.0811444281802854 )
( 14.845059372717976 3.519223691463546 -0.0771224890774653 )
( 14.752335454725474 3.629743704606154 -0.0722681432360002 )
( 14.66185940572004 3.736077149639862 -0.0664070881837513 )
( 14.57113807420648 3.843789079274605 -0.0594179677370471 )
( 14.48078570613684 3.966432518207005 -0.0511468050493896 )
( 16.33265428737969 1.6081150685264751 -0.0088499363518785 )
( 16.191559967107363 1.6724691392312423 -0.0111559808538703 )
( 16.02111949523924 1.800713612610772 -0.0159544689151689 )
( 15.858260804973442 1.9243572468489631 -0.026655268393837 )
( 15.716445755856576 2.031082759608369 -0.0403004643052002 )
( 15.579521060637742 2.146760245346825 -0.0543835094013092 )
( 15.445122385233722 2.276038753241167 -0.0672352107322807 )
( 15.309742986596447 2.414734878302736 -0.0786663878920907 )
( 15.16849111418954 2.5595043012084315 -0.0869961911357794 )
( 15.034101675788133 2.7242624982280863 -0.0911762054451975 )
( 14.900558589576129 2.899930130643442 -0.0924093619060081 )
( 14.761878179230884 3.0759771227872266 -0.090064834145323 )
( 14.631917602434411 3.2413827060734093 -0.0847571571995305 )
( 14.507683937916145 3.387808366453964 -0.077586692475111 )
( 14.38418275351898 3.5151654161361576 -0.0692595688115756 )
( 14.268411237987497 3.621337336257423 -0.0609432234847209 )
( 14.156669577538334 3.7236598182797054 -0.0522262915234516 )
( 14.04290331407866 3.83447096965896 -0.0425291341033308 )
( 13.929790747105075 3.9592277067453967 -0.032003620151155 )
( 16.191391329607946 1.5640751145338596 -0.0183098500186011 )
( 16.032483641291442 1.629716873644338 -0.0237471526075045 )
( 15.84580945219338 1.7604060336362817 -0.033392962497669 )
( 15.669852984409076 1.884911108147284 -0.0478252036028155 )
( 15.511473168556414 1.9943239533684916 -0.0629657637147266 )
( 15.35542542987426 2.114264417610157 -0.0767983003563056 )
( 15.199082670463392 2.247757583608766 -0.0875860875919725 )
( 15.044315365486222 2.3853817896594096 -0.0955813651893172 )
( 14.88002377887172 2.5297314717209662 -0.1002416516042775 )
( 14.72128066096046 2.698377996202224 -0.0986904552089492 )
( 14.559586093104508 2.876181720356164 -0.0935367167721697 )
( 14.396678614667849 3.053953845176645 -0.0861792714026195 )
( 14.242374825125122 3.2170063830059417 -0.0766985556528835 )
( 14.091176216091984 3.354371253667613 -0.0665852953792143 )
( 13.951002649610109 3.472929132300637 -0.0561169777961199 )
( 13.81459426940014 3.577308656976194 -0.0456558163542626 )
( 13.681119071276305 3.681637953652399 -0.0346700622622661 )
( 13.547411841690748 3.797014927244115 -0.0229498880123486 )
( 13.414442903957427 3.925744228985416 -0.0107867195554489 )
( 16.057845731422937 1.511412762879381 -0.0291725124460686 )
( 15.883144409309368 1.5754869717750268 -0.038469696691461 )
( 15.681934411514437 1.7084725145816633 -0.0518187733059966 )
( 15.495321419568183 1.8336521718596293 -0.0673288302994361 )
( 15.318416757960016 1.947385720135751 -0.0828712709158853 )
( 15.1472772724071 2.0674618949214487 -0.0953129167062582 )
( 14.97451142828664 2.197907342421129 -0.1026675113249992 )
( 14.800130154201849 2.339494143466697 -0.1057549821131156 )
( 14.617757861866888 2.488063597503243 -0.105213317964235 )
( 14.427358892722172 2.653486750982402 -0.099667291483405 )
( 14.239353692564158 2.830979207446482 -0.089626178642536 )
( 14.05782024195048 3.0056701730596704 -0.0775412265739528 )
( 13.876677850801936 3.1652474397993964 -0.0645785379794519 )
( 13.703598216975127 3.299129599162197 -0.0520913960734816 )
( 13.547786816364356 3.411349131675092 -0.0405741929807245 )
( 13.391807742466304 3.5162471064770555 -0.0286846769631999 )
( 13.237189490768928 3.6207188153342 -0.0159950492022871 )
( 13.082590289658937 3.736921496551976 -0.0026428693744477 )
( 12.926213303778605 3.869637195857806 0.0112224045257994 )
( 15.926792813472876 1.456226632539169 -0.0412227257199133 )
( 15.739522924949256 1.525161375377071 -0.0539836419959987 )
( 15.52802267792713 1.6589804088897842 -0.0696023318559421 )
( 15.33072338739644 1.778727436658982 -0.0854091809721872 )
( 15.14065211707827 1.8945096761782172 -0.099171328756774 )
( 14.955789200023908 2.009627196665082 -0.1084056449489712 )
( 14.764302174527671 2.1323002454408955 -0.1128041688539659 )
( 14.565030465756372 2.273090103234794 -0.1114357352953149 )
( 14.366078955648458 2.4211283557813648 -0.1049498152026627 )
( 14.155734104096489 2.585158578633491 -0.0952211776700377 )
( 13.945229132754411 2.7661785337994864 -0.0821243867676897 )
( 13.742942659076824 2.941388842215295 -0.0670543804955817 )
( 13.542541317561856 3.0941334585345706 -0.0517123373134283 )
( 13.353876417352527 3.2257061679439034 -0.0373604793031888 )
( 13.176166152888875 3.33585439599044 -0.0240173159209358 )
( 12.997694133269135 3.4369178294807208 -0.0104714641701538 )
( 12.817803175493518 3.539212347358764 0.003501224464883 )
( 12.639077509674893 3.65510075595426 0.0172307022387134 )
( 12.459494613565532 3.793198478760005 0.0304233660757277 )
( 15.807508278211431 1.4023825299190775 -0.0540884897622668 )
( 15.61367361010644 1.4769972234833368 -0.0684921092128181 )
( 15.386616595879808 1.6073754538039966 -0.0856743649285172 )
( 15.181171221123574 1.7190765305916114 -0.1012601045444195 )
( 14.98122215182732 1.830053557643015 -0.1119051657441048 )
( 14.778303182746896 1.942041710013033 -0.1172060240824264 )
( 14.568945952029075 2.057553264154365 -0.1183135243586537 )
( 14.354161100302504 2.1898490260337358 -0.1129764455823599 )
( 14.135269490449028 2.34027938353271 -0.1021999697117815 )
( 13.909426557186825 2.505756696204422 -0.0888507662546023 )
( 13.679170221812404 2.683847880319633 -0.0729771887717312 )
( 13.449842358762556 2.861572389703252 -0.055085641322483 )
( 13.235400399125432 3.0096996827405538 -0.038020473380528 )
( 13.030527828593131 3.1381561027580225 -0.0223086470664663 )
( 12.825886550804674 3.247007272804161 -0.0070817692810702 )
( 12.62057035239821 3.343336658166152 0.0068865317718101 )
( 12.415789880691728 3.445031472518116 0.0199441540944577 )
( 12.216562400578113 3.5634778058310843 0.0319371315998243 )
( 12.013548169148752 3.708018293251511 0.0432166316383801 )
( 15.697468126741294 1.3449582967536051 -0.0677406558064087 )
( 15.49440131338947 1.421829775759898 -0.0837060729397118 )
( 15.254368819819785 1.5500716098605445 -0.1006317800548507 )
( 15.042507766222906 1.6534142367838869 -0.1138822105729861 )
( 14.831411172399392 1.754586118551814 -0.1213968215099476 )
( 14.61231694936236 1.863630832735365 -0.1236266343315738 )
( 14.39237774656319 1.982257371635934 -0.1197274696825514 )
( 14.163101568364088 2.1128638138310927 -0.1100390212927186 )
( 13.925317949410855 2.262071577824747 -0.0966059714212406 )
( 13.681135200333909 2.423303304733716 -0.0807914299282979 )
( 13.432463051774516 2.5942000868813038 -0.0624355751955467 )
( 13.182012421872107 2.7642520988765416 -0.0424028459691509 )
( 12.94391601519425 2.912991957584316 -0.0241953858932142 )
( 12.713969097419335 3.044802444279673 -0.0076893671874635 )
( 12.483439189037068 3.1501562576582827 0.0075572399867061 )
( 12.258131984279167 3.240456200827723 0.0201814859939794 )
( 12.036555974240482 3.341995375255 0.0313335211070382 )
( 11.81566396035004 3.468933317379224 0.0423287736590009 )
( 11.588079054452283 3.6227905200849415 0.0545100764380778 )
( 15.594894203251553 1.2790696786141555 -0.0827148353917702 )
( 15.383518548230832 1.3563387537987832 -0.0993269369537643 )
( 15.138572760757414 1.484014440953593 -0.1141784682635961 )
( 14.915421055792816 1.585332785504093 -0.1241062335021585 )
( 14.694073027092376 1.685570261435838 -0.1279737572208273 )
( 14.4643844695504 1.792140830447324 -0.1262828010753742 )
( 14.231618037848506 1.908276358330775 -0.1182037898973306 )
( 13.984887648296144 2.0325608121037377 -0.1054853031054388 )
( 13.729164852110316 2.1732889969977243 -0.0900742594299812 )
( 13.469319007397706 2.334517195256124 -0.0717522529146991 )
( 13.198539872788228 2.507588588091439 -0.0510395548452701 )
( 12.92877280097058 2.670622399455934 -0.0304568613144748 )
( 12.664238484374293 2.8154843509872918 -0.0120508883840741 )
( 12.404340971298572 2.942738893241076 0.0044716022643244 )
( 12.157527932337828 3.039354942871264 0.018046845565838 )
( 11.920233722178612 3.1294648370646816 0.0297343342914192 )
( 11.679064814127322 3.2355957649216878 0.0412932390811453 )
( 11.43138389655916 3.367861422198605 0.0534274900633356 )
( 11.170990155534511 3.5361013049722048 0.0683512457995541 )
( 15.50269757863721 1.205920399935987 -0.0979091529945384 )
( 15.290114479339218 1.2855057654399349 -0.1127381100938741 )
( 15.036723893585396 1.412525801309294 -0.1249004237918244 )
( 14.80254275002392 1.5122828558353263 -0.1315323372206996 )
( 14.57011699416767 1.611149585836068 -0.1314501096733216 )
( 14.3338443331662 1.7115890835793572 -0.1255512678399008 )
( 14.087933650232518 1.8218167997187775 -0.1152039690097048 )
( 13.830879909606958 1.9426592930835045 -0.1012994610006486 )
( 13.557595681804552 2.077057912316741 -0.0837601191441247 )
( 13.275453064027309 2.2357806710409105 -0.0633550501852002 )
( 12.981823819183768 2.408442868946328 -0.041453376220279 )
( 12.68546667917548 2.57322276678033 -0.0202045414417088 )
( 12.397850576912903 2.717035489295772 -0.0017102093928909 )
( 12.121623813011634 2.832179107581464 0.0135729004483629 )
( 11.859029402826357 2.9223631887900643 0.0264353706937954 )
( 11.598565856483331 3.0178495745984177 0.0389746994097282 )
( 11.331532358966845 3.13486899831922 0.051925301227732 )
( 11.052021240582802 3.2683989791069235 0.0660634550520319 )
( 10.749785511995114 3.442321890451075 0.082611175655599 )
( 15.422464188975898 1.1347681886187415 -0.1114399128552589 )
( 15.203579948642648 1.2172293729084027 -0.1236588621967312 )
( 14.932766589964594 1.343007753467355 -0.1332581371910178 )
( 14.692868789028315 1.4341659151010595 -0.1364554670361618 )
( 14.455217807671854 1.5268032179713664 -0.1326873712969632 )
( 14.212535212361974 1.6233448374493094 -0.1241904835437973 )
( 13.954292986771003 1.7276664215236264 -0.1117570739065082 )
( 13.681483054630274 1.8471737059466389 -0.0957867151822087 )
( 13.395265297639668 1.977790103005837 -0.0759104550699501 )
( 13.093443808037932 2.128650401347475 -0.0544642814351488 )
( 12.773967276859656 2.299364030397293 -0.0325812551064333 )
( 12.45065754132228 2.461381146857037 -0.0113259660535574 )
( 12.139343535106198 2.604204246865587 0.0071029454964872 )
( 11.851623984504792 2.7139129238275923 0.02168088166264 )
( 11.57408267013786 2.8021817977692813 0.0348777342886271 )
( 11.289057420738374 2.900410494883891 0.0486011417789645 )
( 10.988350673457424 3.021620302020543 0.0630960875492475 )
( 10.667935454180208 3.1668429256785355 0.0787877822689481 )
( 10.332019248366564 3.360183426196538 0.0948762070212008 )
( 15.351154617703411 1.0670327714762504 -0.1230089812664841 )
( 15.124991802207433 1.1488869092210416 -0.1332057314732083 )
( 14.84308979460554 1.2704372592446809 -0.1396451085952813 )
( 14.597255014691124 1.3517614432405285 -0.139620201779454 )
( 14.354460567750916 1.4348879066962916 -0.1330003839989792 )
( 14.101710293853415 1.534445124149413 -0.1220885153770057 )
( 13.832625433162132 1.6312814517923429 -0.107760766632783 )
( 13.542415011863683 1.7400767731663906 -0.0892461545801551 )
( 13.238654826056038 1.8727681800418032 -0.0678734336365026 )
( 12.918371703315591 2.0172915582246262 -0.046286049439331 )
( 12.569070333790473 2.18821810273912 -0.0238553932952122 )
( 12.217393622490237 2.351198523522008 -0.0027563685344027 )
( 11.895316205594776 2.483641868354828 0.0148085572767931 )
( 11.59927143815471 2.588316531900304 0.0300429269085639 )
( 11.302917334231724 2.6795042115847054 0.0439317285861134 )
( 10.989790711477992 2.78048745564344 0.0582229025790492 )
( 10.65038955664373 2.9036491804813336 0.0750185225351175 )
( 10.288169334802058 3.0650632660205006 0.0903772819159261 )
( 9.937839893870136 3.297202315573405 0.103784860071644 )
( 15.28892264967726 1.0006189481575998 -0.1321355158200322 )
( 15.052832539189552 1.076633759048886 -0.1408790622355048 )
( 14.764286992467316 1.19638182343943 -0.1436617733480742 )
( 14.517285551817563 1.273162992717213 -0.1408047324378892 )
( 14.266402568836815 1.350100029646827 -0.1319219701944096 )
( 13.998817481428128 1.4438352331705242 -0.1184972248396925 )
( 13.717201444004711 1.53079884764579 -0.1029042841856854 )
( 13.419422980771609 1.6355561255312714 -0.083417183769436 )
( 13.096466104831658 1.7676666787969466 -0.0613835991551764 )
( 12.751365238910513 1.902508790807396 -0.0395591107849829 )
( 12.388577744572626 2.065806391262597 -0.0170372207954297 )
( 12.015883765220106 2.238855795755802 0.0045469259425615 )
( 11.67911952253443 2.366365263487369 0.0227448839728523 )
( 11.365377485813015 2.461205233838893 0.0385180347357132 )
( 11.03956053077208 2.554994317355087 0.0524109166681047 )
( 10.687682859092778 2.6541179212439894 0.0673744512176907 )
( 10.31272051750503 2.7857102029556398 0.0834361309538593 )
( 9.931752120259109 2.9705894311947425 0.0962134074871518 )
( 9.58545633843374 3.2503717092591664 0.1083182759011878 )
( 15.230491899272998 0.9336556727654424 -0.1399627209020606 )
( 14.988381569337877 1.0045112704285628 -0.1461682919277302 )
( 14.694375891189424 1.117973339745472 -0.1461681430159235 )
( 14.44676488038546 1.190002380662798 -0.1410447969340725 )
( 14.187995683642342 1.2667526267026792 -0.1304369148964151 )
( 13.906840962670028 1.35356636389622 -0.1152341166020126 )
( 13.616892635071476 1.4278743516748893 -0.0987816565327434 )
( 13.305490063355808 1.531798186785633 -0.0785868544754832 )
( 12.961517292044936 1.6632063834495177 -0.0556238132492341 )
( 12.59644888786244 1.7974805233973898 -0.0330706953869541 )
( 12.21438382960408 1.947814904918929 -0.0094843828414494 )
( 11.827536850500596 2.103669181344634 0.012457093693564 )
( 11.474359599451434 2.231888339271626 0.0308841662687058 )
( 11.132544050288873 2.330927690092216 0.0466588653453207 )
( 10.775737552547062 2.41638086042933 0.0600371760258477 )
( 10.393992921952972 2.516434874918653 0.0742539454330363 )
( 9.991291164716424 2.6590213898066395 0.0883223372653908 )
( 9.60869240874354 2.8826319141053176 0.0986154210467349 )
( 9.246770182669591 3.226919855392273 0.1085760531082928 )
( 15.18016580126622 0.8644912045521981 -0.1467702894373677 )
( 14.934057841928484 0.9299218638435442 -0.1502145427899719 )
( 14.632103684245426 1.0328761306232153 -0.1474756123069439 )
( 14.38210066422243 1.103891998855026 -0.1404431836623144 )
( 14.115296547823384 1.1757536261175925 -0.1287756061314867 )
( 13.820508171120402 1.2581000494608343 -0.1119000071942291 )
( 13.528745155747824 1.332405642710533 -0.0945260477755271 )
( 13.203647730668177 1.424200618324392 -0.0738925962186161 )
( 12.837080763653752 1.5501432465442 -0.0501501963214454 )
( 12.449928922118294 1.687650820618553 -0.0265467341352492 )
( 12.0413399238956 1.834221213289988 -0.0019808125013788 )
( 11.647791350929667 1.974002370379965 0.0192839056843106 )
( 11.273961944680982 2.0911519014145514 0.0371975845091513 )
( 10.9001323949577 2.190535121291433 0.0536964699288308 )
( 10.521850020065065 2.277759381797123 0.0677178561472111 )
( 10.118194180257408 2.3875980731626902 0.0809860144007044 )
( 9.695606833554477 2.5482480946109107 0.0928583517969106 )
( 9.3017384253971 2.807198181579684 0.1015147759002308 )
( 8.84462311347003 3.173094759316178 0.1057511211838751 )
( 15.140396843374411 0.7960526575112602 -0.1513371491595394 )
( 14.885742674395866 0.8512803931730537 -0.1528126317798788 )
( 14.576604951671726 0.9463533473170976 -0.1478623740216813 )
( 14.321133092681237 1.0151477293740223 -0.139121299726379 )
( 14.046795180951282 1.0843704289751006 -0.1264835099893758 )
( 13.74135848319035 1.166784054691272 -0.1085118399940259 )
( 13.437571504151771 1.237760298844064 -0.0894890471201974 )
( 13.10592091685532 1.318317989836601 -0.068480953604805 )
( 12.727863122332131 1.4334065988081377 -0.0449401751135816 )
( 12.318489211598209 1.5617147019930102 -0.0209974973947998 )
( 11.888067505720317 1.7100616884276842 0.0027742259517535 )
( 11.479314814471548 1.8511556477917972 0.0233497613191804 )
( 11.080762867251638 1.9568534130986728 0.0421522431455504 )
( 10.68434678812508 2.0458274164810857 0.0587206113219695 )
( 10.275068066972908 2.1458446106752085 0.0744683245441858 )
( 9.850634201888989 2.2643932471482406 0.0882177697101294 )
( 9.421357378634507 2.4443262843568694 0.096372594449841 )
( 8.960660685982388 2.7333592671767915 0.1031872751741437 )
( 8.338787652242951 3.058441067621221 0.1014521169240582 )
( 15.103908715894848 0.7230238990514541 -0.1550261868430065 )
( 14.845898988801672 0.7766391320236568 -0.1547220490482272 )
( 14.534462216448452 0.86366329007987 -0.1483755649517669 )
( 14.269629356730103 0.9208610747490654 -0.1383059172573002 )
( 13.98707445580844 0.9900150668793022 -0.123846820167777 )
( 13.67401918542639 1.0749053379173878 -0.1051895228438093 )
( 13.356507050601612 1.137433143615981 -0.0856709733183829 )
( 13.018658586644014 1.209623211633844 -0.0643016204651473 )
( 12.621359809786547 1.31963122610414 -0.0396796896740265 )
( 12.193770630404028 1.4420356817235485 -0.0150522395767161 )
( 11.74694256067996 1.5818844472693008 0.0075331681296496 )
( 11.308716321352044 1.7185613775770434 0.0282880095941176 )
( 10.895116541829692 1.827106734262828 0.0477083005737558 )
( 10.4907939440013 1.9121227229391464 0.0626353002793078 )
( 10.053379492815408 2.0139382316858936 0.0775431174891381 )
( 9.59853691731133 2.140091887342305 0.0891768452297069 )
( 9.153890797140702 2.3356011983373013 0.097050272243035 )
( 8.595901441891431 2.6356610011278487 0.1018249046659391 )
( 7.730564141975558 2.8714355360088124 0.093534713049684 )
( 15.071140311084738 0.6485181609499345 -0.1579738383187887 )
( 14.811281329189775 0.7029754050646657 -0.1558572246206207 )
( 14.495878947489 0.7862741963307482 -0.1481581807028637 )
( 14.225809305009289 0.8375537844727894 -0.1373203502918698 )
( 13.932983793120442 0.9006738930208856 -0.1210485079441086 )
( 13.607128657544536 0.9710933801688328 -0.1012354145613867 )
( 13.279398605324165 1.030026328720162 -0.0819358867162503 )
( 12.935119511348253 1.0978492782504552 -0.0611532349044067 )
( 12.51180432057668 1.201626970249738 -0.0347850006866439 )
( 12.065516591841902 1.325780246096486 -0.008687177153652 )
( 11.614737131724045 1.4567221030908617 0.0125535477472111 )
( 11.16305377865909 1.5905308997523169 0.0333329981347751 )
( 10.731850303078591 1.7035718511067477 0.0528151946307919 )
( 10.299848391947563 1.781518730500795 0.0675634954436841 )
( 9.84934305754701 1.875387806867716 0.0806211655712788 )
( 9.374478721033102 2.008501928230316 0.0896922641209204 )
( 8.863978460451936 2.223059157407527 0.0959507538363969 )
( 8.235250681261391 2.524364431373632 0.0959525589641246 )
( 6.980023407524272 2.585503194811861 0.0821110296882836 )
( 15.041244386793618 0.5817534158080655 -0.1594566133109972 )
( 14.776082276878194 0.6300841191527159 -0.155795295021453 )
( 14.457546928248496 0.7084662213215837 -0.1470695884231024 )
( 14.18573685953337 0.7586839716245908 -0.1354209335187297 )
( 13.883658115381834 0.8128678703700014 -0.1186297273086354 )
( 13.551761688987575 0.8700062065564846 -0.0987542598299428 )
( 13.21367568677326 0.9316587961335788 -0.0783873838805542 )
( 12.85082395667168 1.0025121746261665 -0.0562978059855632 )
( 12.408513961630362 1.0926025534904784 -0.0295821201710167 )
( 11.940062637448875 1.2107771320709553 -0.003133090924929 )
( 11.482536171244876 1.3325040914138837 0.0181735518512755 )
( 11.031707445382397 1.449787222217311 0.0372253337624117 )
( 10.584074498970702 1.5557525976435158 0.0554784855102386 )
( 10.122023163248569 1.637118543117863 0.0716247758787739 )
( 9.647432104850129 1.727383688346174 0.0859681299347786 )
( 9.151260858580088 1.8647298017236735 0.0948276840801241 )
( 8.559645214236284 2.090355967644413 0.0972688753459336 )
( 7.742093705930827 2.33458330576813 0.0924008739141659 )
( 6.25311574562016 2.2638812847635488 0.0754301417183314 )
( 15.0182188528341 0.5141344328450269 -0.1599576832253822 )
( 14.747350548571989 0.5593864429496895 -0.1551914423668113 )
( 14.420975592517353 0.6317229447482762 -0.1457436295554858 )
( 14.146579622667035 0.674873172621527 -0.1335028650668697 )
( 13.838229742648014 0.7271845004565027 -0.1163950056232012 )
( 13.504934383390657 0.7862320049465479 -0.096777072748642 )
( 13.162565058259393 0.8450321728017913 -0.0756377904499316 )
( 12.778120119858004 0.9081035548205986 -0.051370614849361 )
( 12.323844373818735 0.9920796897671126 -0.0244149585681731 )
( 11.846660812545412 1.1029026433994853 0.0012618395449609 )
( 11.37112281408046 1.2156199066657394 0.0231000584766775 )
( 10.897172338314798 1.313314849346978 0.0417542917640527 )
( 10.43071762922067 1.4025359434189075 0.0579942510420483 )
( 9.95100976659691 1.4828761579202543 0.0731959940855588 )
( 9.456931639069616 1.5773242835341048 0.087230058181928 )
( 8.920119774448496 1.732891165316817 0.0945866425423252 )
( 8.266734359173158 1.951071464582797 0.0972771147545675 )
( 7.210966281621408 2.082210245423465 0.090131200033755 )
( 5.628530156247298 1.9539751330731217 0.0691807391308447 )
( 15.0003638219983 0.4439146438474165 -0.1600026892166287 )
( 14.728065369467505 0.4888215766426994 -0.1548259129794905 )
( 14.39260993755534 0.5572530131699246 -0.1448852991459956 )
( 14.11101571826706 0.5929597735263744 -0.1317871434408985 )
( 13.795789810400526 0.6394138796334137 -0.1137272852673113 )
( 13.457908038125325 0.696408964181444 -0.0932639461148749 )
( 13.11040694591457 0.7411256728906956 -0.0721928611389741 )
( 12.713695467352386 0.7993913654497075 -0.0474633288004092 )
( 12.256411711495268 0.8919856739281462 -0.0207082298351208 )
( 11.771820963814628 0.9955582462832716 0.0041138479627863 )
( 11.272414830330115 1.1020708912756991 0.0256641803575407 )
( 10.775552132279763 1.1831575219829744 0.0447641976404477 )
( 10.291294415151723 1.257376997101825 0.0601735305778364 )
( 9.783252593050603 1.3306752792122596 0.0744469364617418 )
( 9.271730879817753 1.424975557642142 0.0854047556166836 )
( 8.676153165811401 1.589645443122529 0.0902122790718729 )
( 7.946952055099582 1.783979927284478 0.0930718867708297 )
( 6.7679554152308885 1.831100116240656 0.0859383111538818 )
( 5.055799270599081 1.6421914098699766 0.0638020517156406 )
( 14.984456081675011 0.3832001393284761 -0.1598508268136814 )
( 14.710210778822969 0.4222766914250862 -0.1540250550117872 )
( 14.369659476897343 0.4819877097513009 -0.1438404027889434 )
( 14.080799241598733 0.5142871988790211 -0.1302009235637587 )
( 13.760486325144887 0.5522416757310348 -0.111396039349829 )