/*--------------------------------*- C++ -*----------------------------------*\
| =========                 |                                                 |
| \\      /  F ield         | OpenFOAM: The Open Source CFD Toolbox           |
|  \\    /   O peration     | Version:  2112                                  |
|   \\  /    A nd           | Website:  www.openfoam.com                      |
|    \\/     M anipulation  |                                                 |
\*---------------------------------------------------------------------------*/
FoamFile
{
    version     2.0;
    format      ascii;
    arch        "LSB;label=32;scalar=64";
    class       volScalarField;
    location    "0.008";
    object      k_LES;
}
// * * * * * * * * * * * * * * * * * * * * * * * * * * * * * * * * * * * * * // 
 
dimensions      [0 2 -2 0 0 0 0];
 
internalField   nonuniform List<scalar> 
13597
(
0.2580724946055888
0.2532719509785017
0.2459133267482061
0.238501404406478
0.2327740368766467
0.2281499088052954
0.2236637886455878
0.2198383094660078
0.2175358638451806
0.2162957943391224
0.2163547246836021
0.2183473551525801
0.2223397993875823
0.2278531881654545
0.2349810089377127
0.2441000964111601
0.2540298424968475
0.263764883881898
0.2742204288216938
0.2377835966322749
0.2322513936638828
0.2253694137639115
0.2221683930925094
0.2210435440010217
0.2212606593429316
0.2228285261962698
0.2260416349476518
0.2310094838360714
0.2370702247882293
0.24479785719599
0.2542250691532921
0.2645352799767044
0.2758679520490892
0.2870552366892614
0.2973063005490906
0.3064279420279417
0.3150017309277041
0.3233753203471041
0.2220731961944632
0.217072518552246
0.2141757472548202
0.2167921229878986
0.2210480398649332
0.2268518462473868
0.2331554013101611
0.2398279560915023
0.2472998345793198
0.2560797681853708
0.2653823628051293
0.2756230751744669
0.286563421855583
0.2970359876935117
0.3067774414699486
0.3150706866324766
0.32208654002755
0.3287129701111941
0.335323097208908
0.2124217045641231
0.2105280693270514
0.212326002125554
0.2191615063919289
0.2259615349268785
0.2329434256966132
0.2401003959904082
0.2472282605437763
0.2546800550868069
0.2631143587679889
0.2722084624086866
0.2823335399919576
0.2937456702812217
0.3056439997808739
0.3162666390027709
0.3250433052166212
0.3322766602483949
0.3392995858155772
0.3460550816912249
0.2098301007289576
0.2102631265468289
0.2147476216978058
0.2235852265883148
0.2302983185218666
0.2364632940656922
0.2428070675864327
0.2493257646291061
0.2570443630230255
0.2666623331186364
0.2790051095797196
0.2930836307402772
0.3077013953762917
0.3217890312097947
0.3326261130809023
0.3411968732005001
0.3477701914742163
0.3530906997938725
0.3570957148854647
0.2111377251351997
0.2126302917660824
0.217612216649387
0.2260590743612135
0.2318463074680493
0.2374543627396844
0.2439314621865606
0.251658147296338
0.2622336886713063
0.2762350234892985
0.2923599153444594
0.3088308208701051
0.3242064846573742
0.3363287513184878
0.3447890880378617
0.3506090167934192
0.3546294666815349
0.3569903884508076
0.3579910563483622
0.2144743553040178
0.2163035874023764
0.220586436633245
0.2269884342720154
0.2321502238856461
0.238503922821403
0.2469231401611761
0.257677799387575
0.2711211709605275
0.2872799868644021
0.3042330438897114
0.3205905639538687
0.3341615102740873
0.3437940942446076
0.3503996069627497
0.3543784686649461
0.3568954607741344
0.3586422194899512
0.3596467421433825
0.2179862823683355
0.2188651966940023
0.2218599138212243
0.2269418871429438
0.2323685691711091
0.2404328619668718
0.2508742753158842
0.2640182022448023
0.2795293420723208
0.2961278941505874
0.3129958567210652
0.3289281499886071
0.3407296383866225
0.3486896712416111
0.3544092147351241
0.3586235716538785
0.3621103958237016
0.3656625357342465
0.3690376830179165
0.2198183377468304
0.2193281169991464
0.2213016182623036
0.2261797320946316
0.2326943680217111
0.2423618763739034
0.254210412784277
0.2691855622570727
0.2863501601044875
0.3032151143580509
0.3198096335625039
0.3349570575840311
0.3462236546051824
0.3547243519630745
0.3615004825143139
0.3678655567402
0.3740796810115104
0.3809034184969216
0.38849865277201
0.221554318792191
0.2194272475632427
0.2202432291199234
0.2253723028393933
0.2334524230415425
0.2443022708263183
0.2572501636795636
0.2737174380746179
0.2916183892640591
0.3089106815288426
0.3257773295164614
0.3408928695193334
0.3532218122216061
0.3638869531302133
0.3734536408899513
0.383271281937383
0.3937192303679093
0.405121310487712
0.4178097943376306
0.2223507226568259
0.2186870864523905
0.2194112348680834
0.2244270022612272
0.2332032822088333
0.2449972110194054
0.2593255258198472
0.2771521731568214
0.2961195901950837
0.3145649211611605
0.3323297481359606
0.3490385174451165
0.3634056211042019
0.3768532486954824
0.3906704438723523
0.4051711061522737
0.4209252206896943
0.4378143284902621
0.4567538974978332
0.2214252071111273
0.2169342893475543
0.2183671822392328
0.223567504417078
0.2329792361524306
0.2457025323073393
0.2618606040929915
0.2811607681701542
0.3009492413726704
0.320654800588844
0.3401564616248376
0.3592688485227174
0.3770424332066043
0.3948558619643652
0.4138533112588183
0.4336169545853129
0.4547742481267359
0.4784983009007995
0.5054218532635372
0.220311525843574
0.2153262063194381
0.2165462612141945
0.2226212148442376
0.233380292404687
0.247385945101218
0.2647151526374362
0.2850677239136301
0.3061300845825856
0.3272645734105634
0.3497845283374849
0.3724079809743493
0.3946391592998199
0.4181256402824709
0.4421791104503724
0.4673757097764011
0.4961316695650211
0.5286773141217002
0.5630406686808304
0.2197835070325696
0.2141603760848503
0.2148053544169014
0.2213492309737791
0.2330659527213751
0.2489387673727999
0.2676297740346976
0.2883424578998045
0.311134845478595
0.3354147054023644
0.3611946401895976
0.3883038962933481
0.4158686486729533
0.4444319627924027
0.4744687098343845
0.5076592377572923
0.5457519207715557
0.586503088896095
0.6302468121041419
0.2190067783663603
0.2126984571666102
0.2136754354513346
0.220295526580244
0.2327203296804457
0.2498452048007621
0.2699605194905302
0.2926741041868743
0.317652226949551
0.3448150468293539
0.3746450169088781
0.4067810548794089
0.4405702009277605
0.4748393464278568
0.5120224143630852
0.5543804024402254
0.601244863965964
0.6522334768034258
0.7178353605407499
0.2178195620593672
0.2101777072076115
0.2114732957422069
0.219239685862965
0.232505548704983
0.2504606131129113
0.2722686980472895
0.2973848072997109
0.3255428131522625
0.3556830313410082
0.3903646921541966
0.4287539542367775
0.4682467306547487
0.5089258849754222
0.5540893300204549
0.6048221059591388
0.6621155729698648
0.7341220441385842
0.8372002074605733
0.216149497083772
0.2074348815330751
0.2092483831549833
0.2182071213682452
0.2328751269264507
0.2526699447988318
0.2761777768286708
0.3026498813554471
0.3336333735924248
0.3677076019371608
0.4059043034137636
0.450631063983396
0.497191304453478
0.5452341995689663
0.5988852044890446
0.6599689297391488
0.7347838178261531
0.8404824264802198
0.9764247421486189
0.2141917405391016
0.2051621155915151
0.207567773311085
0.2175714521434406
0.2335679910964748
0.2552306570745742
0.2797798028204353
0.3081919906282446
0.3424204809315068
0.3801858722775068
0.4233376525509318
0.4742571784405309
0.5278297591588115
0.5844736440602024
0.6473892878656785
0.7211691562826448
0.8239138227424698
0.9671412560871724
1.0961082010931915
0.212989521504417
0.2036616652552254
0.2064105864202401
0.2175816310755129
0.2346202863460069
0.2578510335225575
0.2834800709884369
0.3138341626761072
0.3513770265768069
0.393699217855105
0.4439409052817449
0.5000952974960619
0.5605738811743891
0.626730122050366
0.6996008669638082
0.7938953514283785
0.9325147411990858
1.1049689537520453
1.1843447104864884
0.2123691942405496
0.2025496614897736
0.2057360030093005
0.2180329534688913
0.2361760707368228
0.2608161241559887
0.2884154753710249
0.3202929215841096
0.3600562876305477
0.4072716555017741
0.4646365500089403
0.5275340963279304
0.5952808254273764
0.6692246359915699
0.7590688245032027
0.8802681942038665
1.0555287824899755
1.237405109475848
1.240242624174335
0.2117730235172415
0.201713149143533
0.2050275665388973
0.2181535566106247
0.2374666752541307
0.2633671323216672
0.292980634546293
0.3262711366004067
0.3694688766616404
0.4217126519344898
0.4853472978388315
0.5571573958395312
0.6312686923612776
0.711884507763309
0.8217767283007453
0.9788932863514508
1.1871462659267973
1.353176280816038
1.2346987355140913
0.2115861792682494
0.20143514405773
0.20512270771174
0.2186348715416506
0.2392457782051117
0.2669475863741554
0.2980029845334922
0.3328089829868983
0.3803192149772429
0.4376968608051023
0.5057691302459334
0.5830826732291999
0.6640973179505343
0.7591541486452399
0.8896899648817903
1.0856501132629517
1.3160053452858265
1.443436334536112
1.147779870495284
0.2115724778095927
0.2016189621763722
0.2056142783047091
0.2194986403399221
0.2412872170741568
0.2701166682696136
0.3027010504715124
0.3405819756665328
0.392051043511696
0.4550032015240544
0.5276350624430836
0.6082136581740123
0.6962700100592639
0.8081228770838251
0.9704921687572284
1.2013726247587948
1.4377502902643815
1.46918641526373
1.0497730566069303
0.2121654760018865
0.2022415799076208
0.2065655564073597
0.2207673281951207
0.2433959213575358
0.2727665003504791
0.3063843054744356
0.3474313473782911
0.4020527327504206
0.4688975685777337
0.5471169966849913
0.6357761908790773
0.7334430567027079
0.8617298083597471
1.057058059706148
1.3179251880854708
1.5476698825264752
1.451096445381464
0.9613082995778216
0.2136679634001566
0.203289377614624
0.2078809914930767
0.2227728116907025
0.2460014668504005
0.2760028403285969
0.3105253172897375
0.3537304149267028
0.4102369714140707
0.4806306508243708
0.565673172753705
0.6627320558968117
0.7712094353626573
0.925195893071957
1.1469252456701164
1.424849393270902
1.6266872172596143
1.4228237419897825
0.8633249896085115
0.2153091338219648
0.204776737020273
0.2093405305157339
0.22483875385554
0.2487419700355917
0.2788181163817914
0.3150051447309632
0.3603892411335462
0.4188033209112042
0.4946465094358507
0.5850990957032921
0.6879656738168891
0.8088601386819493
0.9865631487793384
1.233175021976839
1.5243296044253092
1.652503182089864
1.3555269415235986
0.7896839699440072
0.216424943551643
0.2061020908503866
0.2109586912311413
0.2268703978496598
0.251029887433908
0.281419684447472
0.3196129962155012
0.3674964569387761
0.4286428982930677
0.5089762487696992
0.6033069387744757
0.7110939390153649
0.8455359859690098
1.041023310399236
1.3150936001837696
1.611340154738239
1.6609926682867695
1.2788955328096938
0.7275749693405416
0.2178098059751438
0.2074717334705917
0.2128536364923252
0.2293554487521412
0.2531094200862959
0.2841263770074687
0.3234550267980529
0.3731412248797326
0.4377450672927579
0.5235161077414282
0.6228796789602402
0.7334727331248081
0.8798282495310509
1.0955187627289409
1.4022054518527642
1.6943731604364956
1.6876214026905711
1.2276726348917668
0.6747755201329224
0.2195077631443464
0.2091348366835478
0.2145432811205649
0.2315991147665799
0.2548820188628571
0.286271385806267
0.3264300206148141
0.3774891625751781
0.4459170298077364
0.536499881984712
0.6396797279450288
0.7579852291966753
0.9235461785213775
1.1536680113631446
1.479034452430833
1.7566851669181738
1.688974432020586
1.181018022974218
0.6423746022554114
0.2216040957091917
0.2110662594675523
0.2164349402733893
0.2336236265122549
0.2568572666445547
0.2889687075205784
0.3294717145470305
0.3820428235935894
0.4543292489002507
0.5463225389757911
0.6519162261979248
0.7827634512175236
0.9626530818785124
1.2086117481804308
1.5442271534601115
1.754603300733114
1.6272229730443444
1.1355631860952786
0.6239016193729346
0.2242882181679416
0.2135449317508665
0.2186595470855935
0.2354715127563204
0.2591814297215761
0.292309121230302
0.3329392476590898
0.387659419054598
0.4627952422357615
0.5560479363036283
0.6655139889127277
0.8061160775247276
0.9904804164347094
1.2567865661524238
1.603350553231368
1.7443595596010908
1.5640832034009606
1.0953832172525353
0.6108256108151324
0.2272240634749375
0.2162676070692184
0.2210962943733431
0.2377123885905319
0.2616811880322845
0.2950029730083177
0.3366966872115908
0.3939451716389145
0.4710088252892176
0.5663221457191039
0.6795909993218737
0.8266672663149044
1.019408253121771
1.3141818883702818
1.6587998460184503
1.7641736964190615
1.5480615535359468
1.0609719313016783
0.5938349463435026
0.2297090940503487
0.2185891535075816
0.2234176665370007
0.2402383662931307
0.2640715867227005
0.2968671454613215
0.3394592313075147
0.3988019321068112
0.4780651125892983
0.5765437468822392
0.6935105461279631
0.8462064379665502
1.0458924105116616
1.3619174986480145
1.710876003268008
1.792749755035197
1.548314281961621
1.0369264142847516
0.5740809427869475
0.2321677322067489
0.2209722644616821
0.2256693039322466
0.2422665580614576
0.2662148608369502
0.2988223930095046
0.3413887693618536
0.4022951213113257
0.4835708052406324
0.5866199417590642
0.7090306023589977
0.8652454514966164
1.0695284772288305
1.3966860851165606
1.757031679050659
1.8239526673525677
1.5530196196815271
1.0230452323100876
0.5632978564805096
0.235027886833449
0.2235704578464465
0.2281027405363691
0.2438670359623718
0.2680475330295928
0.3007410939196133
0.3432648455665861
0.4051188744023433
0.4883142590302847
0.5947531490552377
0.7212874767661154
0.8808182015885359
1.0938919319039149
1.4311739061971844
1.789193919169327
1.8401917250178288
1.5513992246056372
1.0120635949748047
0.5576707095526894
0.2374812444300545
0.2258561518918965
0.2302072471554258
0.2455072585653391
0.2695939270955056
0.3026001581463464
0.3450490853030815
0.4074971950602596
0.4932022608671521
0.6007815843703606
0.7301795201099921
0.8946672669396318
1.1161781729834213
1.455991493111137
1.8126083639404544
1.8544090325003857
1.545073980428826
0.9988566422541028
0.5496436906384039
0.2398394431810317
0.22803131387578
0.2324041368787522
0.2473941006466653
0.2713190405427526
0.3048737932370758
0.347758618772706
0.4104370866726659
0.497986155997607
0.6068053529582693
0.7387425473505891
0.9085060096232772
1.13591818345275
1.479118741925623
1.833468180793841
1.8618498513688264
1.5461889346371354
0.9960836232131816
0.5423119590437673
0.2421380968361131
0.2300195951151415
0.2342718360989889
0.2488716496758944
0.2724552235188144
0.3061899124941195
0.3505008508399831
0.4135560419096794
0.5026154418622326
0.6122534309379288
0.7465731813281931
0.920867633080433
1.1581827563100795
1.504125653356556
1.842824986342396
1.8623853347397208
1.5408744131311949
0.994031598865358
0.539094970745951
0.2440177436798955
0.231893561624474
0.2355863690003898
0.2500486616713183
0.2735116231153291
0.3068403942703555
0.3517897804572294
0.4154380728543804
0.5065820403645124
0.6167588553878132
0.7528456864895516
0.9305248873772658
1.1803467083839534
1.5329311936990708
1.8480329222866996
1.8562975767275625
1.5256027442842068
0.9842978165953916
0.5389451875362772
0.2462238933958778
0.2342100996049329
0.2374149773908294
0.2516612163559232
0.274978130622593
0.3079635976792249
0.3526247472610717
0.4162004352041495
0.5084728512546676
0.6192702923412274
0.7565229889235568
0.9371289824077026
1.1933005239421617
1.5551175835911646
1.8555866888901689
1.8455466107785123
1.5162009217762908
0.9794893133660468
0.539630560401448
0.2485926607188857
0.2364965539387921
0.2392973613680398
0.2531928364299285
0.2762913367440656
0.3091635704231515
0.3533708652641604
0.4172077683860472
0.510727335690467
0.6232857150594987
0.7606986991252944
0.9448270244549104
1.204372935941571
1.566579608426877
1.855500986701004
1.830917977532992
1.5042627504482795
0.9737700632895704
0.5403790642149766
0.2503899570897689
0.2381651705745554
0.240632014782286
0.2543560838859611
0.2772938469661068
0.3101214861334847
0.3543848164762814
0.4187716458845262
0.5138867668321758
0.6299927044791895
0.7673203628664435
0.9525638254706816
1.2138062023193243
1.570918961576281
1.8544100230805367
1.8241954756706231
1.4915176760007671
0.9639314633013712
0.5390111820448672
0.2521539344949681
0.2398419890160691
0.2420737558771989
0.2555973434342989
0.2783970451693366
0.3111120115532834
0.3555935128726191
0.4196589508683899
0.5145488096355422
0.633583016808823
0.7724824649990498
0.9560847182745904
1.2147640127087778
1.5767449089185677
1.8643938777631512
1.824074697217388
1.4811694092587342
0.9549751340926113
0.533954924503878
0.2540631577788267
0.2415122585545573
0.2433911013866098
0.2567362727083511
0.2796218739415755
0.3120096356677302
0.3558738610759762
0.4197944755280077
0.5160541224480494
0.6376020728994161
0.7772559095453957
0.9613184654493916
1.2184834322784563
1.58327433614416
1.860990053663557
1.8099818503712053
1.4711225491682405
0.9493912226381088
0.531320273681359
0.2593482828723047
0.2611244306822004
0.2646257775878953
0.2678092290870904
0.2685443515977045
0.2673217849493535
0.2643389218351946
0.2606225335617593
0.2571883402604732
0.2539768126181053
0.2506431474477245
0.2478199762848004
0.2451046903172543
0.2426120574773432
0.240889834099997
0.2390121651439725
0.2375967851561557
0.2363596655896384
0.2347441188005728
0.2648710239219121
0.2679855694154479
0.2718411387685788
0.275566463527516
0.2764575311462179
0.2760378406373484
0.2748202753022797
0.273107646087354
0.2709201914695513
0.2683935747575841
0.2660123038502006
0.264149675246473
0.2625215333704834
0.259865556735197
0.2572317566063938
0.2546843122476983
0.2526344598956971
0.2513277926773992
0.2495540252905708
0.2632810080551884
0.2658290356362636
0.2689079392616675
0.2724838881682876
0.2735778170964486
0.2740585775059536
0.2733252517559262
0.2717626188086239
0.2699726090696405
0.2674832934733271
0.2645609788124718
0.2616113952387373
0.2589056257778882
0.2558331930146518
0.2528949922387309
0.250877679506482
0.2490730703630339
0.2472686974110592
0.2450836280891041
0.2583459518482666
0.2598197735759681
0.2628931128089726
0.2670555061013087
0.2682128857474665
0.2691699194648974
0.2692836000027575
0.2683908296968648
0.2667582473288037
0.2643414196527517
0.2616786739060348
0.2589966778062747
0.2565792918291196
0.2542741780855371
0.2522257787643845
0.250819883322775
0.2493078360849862
0.2473779185907089
0.2454924064421483
0.2517448444793552
0.2528826383959993
0.258179366846012
0.2644135362590004
0.2667407136584782
0.2687358145316331
0.2707277015558119
0.27110761112615
0.2708091309421503
0.2697085781167772
0.2676722669306955
0.2656006888535247
0.2632319418152327
0.2606557910393322
0.2584145513273755
0.2568675162599001
0.2554398524751086
0.2537540131577017
0.2520763533098213
0.2461186117429695
0.2486082077337581
0.2565776702329282
0.2657633354449014
0.2712545104197514
0.2759040130808957
0.2793497100028451
0.2811728950668057
0.2815480298260164
0.2797408614557485
0.2766928541979346
0.2737253204389624
0.2705063279683355
0.2671350972232865
0.2647344344354426
0.2635545569626441
0.2626556340070408
0.2622172066225992
0.2624872166875184
0.2446804018489883
0.2492461326910484
0.2596720301847389
0.2722129428670163
0.2804208283848952
0.2865938318614098
0.2906869656008528
0.2921040496044356
0.2910031796747875
0.287807753648333
0.283448635447407
0.2788620118927451
0.2752113038531013
0.2728443063851795
0.2717494560297555
0.2722947330760351
0.2738269051051694
0.2766398738471036
0.280999834260651
0.2466626454119537
0.2535930082776051
0.2674409534556348
0.2817386407651209
0.2909904346628258
0.2971098876829113
0.3001862633292049
0.2991031901301162
0.2959316585998645
0.2920174493246767
0.2871094903615273
0.2827668937993049
0.2803513519626575
0.2805199487510699
0.2827664932643192
0.2868209212336322
0.2924245432613199
0.3000044032722407
0.3095988240763498
0.2517947167831041
0.2610595069069387
0.276920592845707
0.2918344234094425
0.3008630172059012
0.3053390378691881
0.3059216687663576
0.3034295760284382
0.2991038226818878
0.2938765694636232
0.2894003614701989
0.2875591841801285
0.2885100554567305
0.292545231683105
0.29926960922833
0.3079212065889004
0.3188355928314754
0.3321153872067192
0.3476510837045959
0.2574151704240253
0.2688281179096011
0.2864173929543661
0.3005884499832348
0.307968387196179
0.3103640300821915
0.3086144904077532
0.3048907834521755
0.2998550060755804
0.2951815074016702
0.2932064427191607
0.2951698987304275
0.3009713263564563
0.3101087196100025
0.3219218648867185
0.3359184999949761
0.3533265717282454
0.3732063562329306
0.3949708722670865
0.2631512407494062
0.27644734125204
0.2944692101692699
0.3069522510990328
0.3120259536735539
0.3122682513910453
0.3086777484234494
0.3039804258956973
0.2999433835108509
0.297624535520373
0.2992895377512072
0.3064143534981538
0.3178710034897645
0.3328468913321293
0.3509337654732136
0.3713339458270211
0.3949159607960812
0.4212256804860733
0.4492825752578065
0.2694869903188037
0.2835755879493973
0.3004617400779515
0.310313404568059
0.3131407666634612
0.3116128132611406
0.3071099974365239
0.3027735937503309
0.3009664019570538
0.302262150615099
0.3091210346031003
0.3220171797601145
0.3391001168259948
0.360343096288186
0.3851727831004949
0.4123442193542385
0.4421133423450347
0.4746783205482922
0.5096909828448025
0.2745719279789291
0.2883939946797384
0.3045234616200216
0.3114304150455353
0.3123056154528481
0.3097596839135126
0.3055515741516572
0.3025955927973511
0.3032166676057412
0.309218513301422
0.3220959612774265
0.341508702407047
0.3647236590132794
0.391776300470597
0.423197787326335
0.4573582336991423
0.4941720549382786
0.5344754353257859
0.5785103085561839
0.2782910408461706
0.2913927573249421
0.3064140869418347
0.3110611150049625
0.310403498382069
0.3074686259108384
0.3042411542749371
0.3035359382031401
0.3078546012652238
0.3188147473729326
0.3375402604056525
0.3633762967608447
0.3934292352663844
0.4262336788283984
0.4644201503248484
0.5072682913685971
0.5516854593318614
0.6003468974107764
0.6540422968406897
0.2818417492465444
0.2934953264471759
0.3062075546727627
0.3095566981231752
0.3081090539199227
0.3053074963629157
0.3037751887955752
0.3057983073282976
0.3144144948293086
0.3309731954568196
0.3554661630571114
0.3865163713505956
0.4234557228514473
0.4644043335169409
0.5091698594489373
0.560012262517497
0.614090195841846
0.6730163219949807
0.7425195319703584
0.2844020231554641
0.2941890642776223
0.3050381421849668
0.3072251235619637
0.3056000933298623
0.3035029867748656
0.3039569523580804
0.3091816541471853
0.3217786024755146
0.3441275688694556
0.3738487200428989
0.4115779880010571
0.4560397503287552
0.5053919272938476
0.557446852759626
0.6143237933172705
0.6798065430330157
0.7560964151163198
0.851204961573836
0.2852389950286507
0.2932329293050686
0.3034034093742896
0.3049594210748119
0.3034861331996403
0.3022746535480047
0.3048373442698866
0.3138234538864486
0.3309632156335668
0.3579282316830434
0.3933011278075098
0.4384970921441271
0.4896689017616198
0.5458526638913611
0.6071167002751356
0.6739804072282105
0.7527733361742462
0.8532089163192159
0.9755987101530312
0.2848415073349137
0.2915589119551578
0.3011824515329186
0.3024537682215295
0.301347023514445
0.3015126262208836
0.3067332083898353
0.3196299509341893
0.3418242481523986
0.3729223787313376
0.4147144326342458
0.4672051590006832
0.5253276906442956
0.5892336664922349
0.6591258980939668
0.7394166908469383
0.8379915703077943
0.9717325943426556
1.1085442190896535
0.2842565589854059
0.2902191907049105
0.2987245470359642
0.2993454755979187
0.2989085810090144
0.3009725441937788
0.3091318895827169
0.3257301315785965
0.3520743265846527
0.3879396116595018
0.4363309585051423
0.4953893907553425
0.5619948437963757
0.6341970076888727
0.7129640206957596
0.8110112752657916
0.9377812515000636
1.1013460632027023
1.2192007645098206
0.2835755571783887
0.2890018424676656
0.2961240051168932
0.2964458032693519
0.2970067611920097
0.300729086903524
0.3113835301385135
0.3316891347343423
0.3623157897620637
0.4036056059824005
0.4591950585912333
0.5252436354416946
0.5995076665585289
0.6807964691306219
0.7710988216532548
0.888777552552303
1.0514422695802002
1.2286828698050318
1.2964255181475728
0.2829348323003084
0.287816239557447
0.2936535603743987
0.2938608604307282
0.2954738509052663
0.3007791014645749
0.3144194392073542
0.338126274141748
0.3722894032735651
0.4188435409197796
0.4814176619491186
0.5565051885405129
0.6379922238593232
0.729473881279808
0.836346338310527
0.9783431042116724
1.1721267066707108
1.3520492047006871
1.3214769036992189
0.2829188329777827
0.2861616908508872
0.2912236712310156
0.2916968349973032
0.2940663227820996
0.3012344472770751
0.3179739155858403
0.3448733639849928
0.3827800130821816
0.4342847648470093
0.5028218666287143
0.5857510776511358
0.6756616788964069
0.7772374793284864
0.9001722146988573
1.0772133369452632
1.3071606241965836
1.4763376123223462
1.248710604571125
0.2832030031573946
0.2842365135034619
0.2884595767773888
0.2894499976379406
0.2928196963458214
0.30211430450754
0.3215954341030027
0.3514873192914987
0.3942886575811503
0.4517728608976245
0.5263788512663519
0.6170712142937457
0.7167899196308204
0.8285585695682756
0.9751895390810792
1.1903334383778092
1.4401541195382408
1.5130463846733315
1.1416797976051831
0.2831895792243669
0.2827054522734835
0.2857873138288479
0.2870492051094016
0.2920852629243188
0.3034591803755764
0.3250238983079176
0.3574157213699487
0.4043918389096846
0.4687933117336581
0.549602785677052
0.6476316954473019
0.7569760152032396
0.8819663007324212
1.0583332585851493
1.3088773172540884
1.5497286038047111
1.484578332139069
1.0529164693129471
0.2829203219285718
0.2806900854026958
0.2834637707761064
0.2850449379688907
0.2913625647544091
0.3045109899148883
0.3277716783902226
0.3631120064519074
0.4137278158462712
0.4844957700759581
0.5732947296904901
0.6779119140882367
0.795512299739064
0.9413756091298692
1.1447344334129677
1.412492195584293
1.6252278938445957
1.4672450687428598
0.959432725827097
0.2824836795047354
0.2785462145767616
0.2811217479922149
0.2832005538763273
0.2905891272692247
0.3056182050695525
0.3310636606603739
0.3691828163926547
0.4239731501756092
0.499913522448524
0.5950456683650736
0.7068302077794714
0.8307160798704953
0.9965327046360002
1.2292595975445983
1.5041489404148627
1.634450145373031
1.3878265856930836
0.8688712199847533
0.2817633566485373
0.2764422004661863
0.2783070976274498
0.2810966363469038
0.2898488998462765
0.3066915108359198
0.3344979223275697
0.3749496457074908
0.4334693385892086
0.5132112659968898
0.6149872765801865
0.7352350455716673
0.8672839442371968
1.046474851326463
1.305766269927502
1.589502176666434
1.6455868544730978
1.3115186182145533
0.7916865736354305
0.2808676086717643
0.2741617224427257
0.2754196208470469
0.2792484446772488
0.2892297075501102
0.3074911246536156
0.3369962810286843
0.379489051761227
0.4411856353855014
0.5257755163525338
0.6352720061501851
0.7613864599614782
0.9061234473130982
1.103480771869574
1.3897208524538895
1.68028863958687
1.6850328360211675
1.275239370260264
0.7395953401607313
0.2798740442906606
0.2721928921591345
0.2731639203753837
0.2777318194734481
0.2885509015684795
0.3082167856605227
0.3392317722070501
0.3843324742213771
0.44934509828811
0.539594441346818
0.652734266632771
0.7836300875434535
0.9437322567851432
1.157596412995779
1.4598493567864663
1.730710967479593
1.684509953985702
1.2345894039507472
0.703653522063073
0.2782731491984099
0.2701887578551946
0.2709997752812956
0.2761159862497669
0.2876108381805936
0.3088491012038788
0.3419888570277626
0.3901703437781681
0.4569606587643404
0.5508148293743167
0.669354555317256
0.8092179094251988
0.9831448068001454
1.2045465683143757
1.516882338703748
1.7345197770682916
1.6215905056301314
1.1706960912951223
0.6684406212349047
0.2762757894198764
0.2681392855082589
0.2686615931231881
0.2742206987032254
0.2867537140159692
0.3093842028118438
0.3443571461678109
0.3957727959211721
0.4643338828040939
0.5604922824993135
0.6843092662504314
0.8303906742646673
1.0093190874320603
1.2468853076782518
1.5796672317021705
1.739657003806269
1.5580551146265968
1.1078312902342389
0.6367867407443459
0.2748137382548082
0.265831319678624
0.2661798998904893
0.2724659797683662
0.2860971456273465
0.30990668414917
0.3462424038575487
0.4002497012211855
0.4728049835608389
0.5728657471256545
0.6988985317220652
0.8479844893168142
1.0314840242822616
1.2927374355727876
1.6400368142193935
1.764521643297542
1.542034071873967
1.0681215924793708
0.6091881937824198
0.2736662988612306
0.2634278691495539
0.2639262379367935
0.2708135531019991
0.285733024916787
0.3105705223173501
0.3479127354171054
0.4032154300805241
0.4791830196427878
0.5841213227696953
0.7140125217365735
0.8673547515772366
1.0595180680028684
1.3412910276813923
1.691630332270759
1.7997504618923958
1.5445153773636675
1.0410167113905109
0.5949407145876079
0.2722190577237849
0.2615153972495354
0.2619159956435999
0.269223440547241
0.2856471493455432
0.311404122882791
0.3495745126725867
0.4057406616808851
0.484219362529336
0.5910362807107131
0.7225518846616402
0.8827204950070526
1.0822335360162685
1.3813787476871724
1.7278484030888066
1.8187290724213263
1.548176929187247
1.0210658465390543
0.5805265975903336
0.2710314531372661
0.2597691269693673
0.2598723143933147
0.2679779728344383
0.2853760558797498
0.3123289951472104
0.351013777634492
0.408141735395179
0.4908781827759356
0.5989341541140946
0.7310272796316958
0.8973071933373481
1.0987662227669543
1.4087684763869583
1.7559595373660422
1.836725058911579
1.5508843522856677
1.003370436730413
0.5643753051114943
0.269733518627447
0.2576351816082892
0.257821577833985
0.2668125456691692
0.2847238943834629
0.3127281260485168
0.3520747638296788
0.4111371185974593
0.4970712085502728
0.6064276000718009
0.7420009684019238
0.9098228531614768
1.1114565884420549
1.435020187466881
1.7917520290054874
1.85701072890422
1.542130596381445
0.9899927005461469
0.5578287718730095
0.2681037020452155
0.2554809833950079
0.2557787022457981
0.2654807264782621
0.2836591060794479
0.3126801633246709
0.3529726645356628
0.4138654266199469
0.5018019195496471
0.6114320332234405
0.7478081336208207
0.9191061057209652
1.1292249218205608
1.462367285454392
1.8193836662174128
1.8691723245501992
1.5355891225565217
0.984032417232136
0.5563842010888497
0.2664406144776978
0.2535276047228376
0.2539119833642073