/*--------------------------------*- C++ -*----------------------------------*\
| =========                 |                                                 |
| \\      /  F ield         | OpenFOAM: The Open Source CFD Toolbox           |
|  \\    /   O peration     | Version:  2112                                  |
|   \\  /    A nd           | Website:  www.openfoam.com                      |
|    \\/     M anipulation  |                                                 |
\*---------------------------------------------------------------------------*/
FoamFile
{
    version     2.0;
    format      ascii;
    arch        "LSB;label=32;scalar=64";
    class       volSymmTensorField;
    location    "0.008";
    object      tauij_LES;
}
// * * * * * * * * * * * * * * * * * * * * * * * * * * * * * * * * * * * * * // 
 
dimensions      [0 2 -2 0 0 0 0];
 
internalField   nonuniform List<symmTensor> 
13597
(
( 0.219107368923548 0.0754398389811792 0.0673560021929267 0.0598715040167395 0.0364801314142635 0.2371661162708898 )
( 0.2178219076404815 0.0758517536355703 0.0663086619069196 0.0603759167683833 0.034316958679781 0.2283460775481384 )
( 0.2160137595431276 0.0761965125999032 0.0622100695141776 0.0627189771885187 0.0296081106575027 0.2130939167647657 )
( 0.2168162383741753 0.0768454811055218 0.0558325783747876 0.0676823629649075 0.0230275516496928 0.1925042074738729 )
( 0.2195976924010687 0.0779326550206804 0.0489567443273908 0.0724042609554868 0.0174139916325565 0.1735461203967377 )
( 0.2228552804767782 0.0789012333998276 0.0423413675123715 0.0751909982087821 0.0136221866920721 0.1582535389250305 )
( 0.2266317919626131 0.0795357418442714 0.0353700821319655 0.0771343801470521 0.0105155738814251 0.1435614051815104 )
( 0.2315649222232207 0.080547942131372 0.0276764988135788 0.0788654938717315 0.0077095014485879 0.1292462028370633 )
( 0.2367496988796477 0.0818581498385474 0.0199969849751809 0.0806043337008862 0.0058341436646719 0.1177176951098273 )
( 0.2422949815309839 0.0831208818483225 0.0127500165362164 0.0816410645972686 0.0043250597837559 0.1086555425499922 )
( 0.2489140542482679 0.0849157007808091 0.005398846100206 0.0818458490360694 0.0027499239517233 0.1019495460828667 )
( 0.2559907013897139 0.0870543384703376 -0.001781071718075 0.0824200675426877 0.0015328409638371 0.0982839413727585 )
( 0.2636049443644241 0.0890800521323458 -0.0082375173883107 0.0832108153061089 0.0010111701023695 0.0978638391046316 )
( 0.2702398265337102 0.0916997919508538 -0.0145134198826764 0.0847170868380659 0.0006736924793825 0.1007494629591328 )
( 0.2754060071755008 0.0945997923568111 -0.0205317402510695 0.087192920357035 0.0007034231975159 0.1073630903428893 )
( 0.2812212192575372 0.0973301418935437 -0.0256822007573759 0.0901783900456764 0.0012087988110769 0.1168005835191065 )
( 0.2878850908554613 0.0999767439489562 -0.0295920686506686 0.0931068301563162 0.0018378451730151 0.1270677639819174 )
( 0.2938329469034043 0.1024367551911861 -0.0322392035348664 0.0960419014274716 0.0027606416792855 0.1376549194329203 )
( 0.2991899134212703 0.1053129241981006 -0.0346897434714611 0.1002384575265469 0.0040601876514979 0.1490124866955702 )
( 0.2222030789334067 0.0812674846678329 0.0739574857922562 0.0608214720187863 0.0333887639216633 0.1925426423123566 )
( 0.2222143369772412 0.0829860342384244 0.0727156603058379 0.0620908427445721 0.0298068200143493 0.1801976076059518 )
( 0.2232544530774159 0.0855543064844305 0.0671428642541818 0.0648467254435151 0.0227164275395199 0.162637649006892 )
( 0.228080520395559 0.0888972853911697 0.0597441950716185 0.0695648422680957 0.0148434006571998 0.1466914235213639 )
( 0.2330195780602961 0.0915723169566591 0.0530952876715491 0.0731609246249191 0.0093089852547141 0.135906585316828 )
( 0.2378268721393969 0.0942148638523724 0.0467414132558895 0.0760591370889221 0.0051516926201493 0.128635309457544 )
( 0.2429043491289978 0.0967414603685399 0.0399902069561413 0.0781781081002089 0.0016304129435777 0.1245745951633328 )
( 0.2484137196561197 0.0993227259388673 0.0330097728825283 0.0797841561266636 -0.0017863176916363 0.1238853941125201 )
( 0.2538806793693716 0.1019378733237245 0.0260766981462691 0.0814748136383627 -0.004548248753225 0.1266634746644085 )
( 0.2592864498503729 0.1046138156533673 0.0201986873349243 0.0827749717831604 -0.006814524993585 0.1320790279429253 )
( 0.2651101450281011 0.1077987662372059 0.0142768979414411 0.0839246307888496 -0.0088823909275057 0.1405609385750293 )
( 0.270175249861681 0.1114227215222936 0.008217869393799 0.0864154074724058 -0.0098959052950059 0.1518594809724974 )
( 0.2750879003631401 0.1151696316782459 0.0039606798961188 0.0895008547212451 -0.0097601466601089 0.1644818048690233 )
( 0.2801546573567959 0.119561696657417 0.0004842791759144 0.0937241150298754 -0.0087484141101581 0.177857131711507 )
( 0.2833620140555453 0.124220917090934 -0.0030038357858201 0.0992600927857551 -0.0068978639145922 0.1914883665372225 )
( 0.2856206788382692 0.1286439072748309 -0.0053593443164151 0.1050500893982604 -0.0041016268006387 0.2039418328616517 )
( 0.2880438456652807 0.1327586004633262 -0.0063949927070547 0.1109145326042969 -0.0007059761445119 0.213897505786306 )
( 0.2907761265243451 0.1368815702236752 -0.0062946062847832 0.1170271873201993 0.0032185885576264 0.2222001480108637 )
( 0.2939430984097705 0.1413409415588198 -0.0064339615112172 0.1235048460523894 0.0075170023248312 0.2293026962320482 )
( 0.2227919400266654 0.0867214604340097 0.0830501544893238 0.0668196303551657 0.0277516988513458 0.1545348220070952 )
( 0.2224431983883532 0.0891282405918181 0.0822569492329415 0.0698465621784844 0.0225392353035556 0.1418552765376544 )
( 0.2242351480935681 0.0929663405872302 0.0759952150910343 0.0734634648072504 0.0146611342513527 0.130652881608822 )
( 0.2286440560267051 0.0971142405927607 0.068507293592475 0.0785647147168979 0.0068301456153363 0.1263754752321942 )
( 0.2323684450113778 0.0999719271301216 0.063128697988659 0.0823243152400669 0.0012838343233241 0.1274033194784218 )
( 0.2358544445617879 0.1027109371268434 0.0575578851783814 0.0854848567580174 -0.0031342181675162 0.1323643911749682 )
( 0.2388331808167337 0.1050412822404486 0.0517606169847496 0.0875391366467346 -0.0070772332236031 0.1399384851568537 )
( 0.2407148311082999 0.1072889701090471 0.0464933227410093 0.0890402276779054 -0.0104052000009813 0.1499008533967991 )
( 0.242851169413338 0.109837092654684 0.0414358758983342 0.0906431932219462 -0.0128145889922655 0.1611053065233553 )
( 0.2457938261128559 0.1126481311628757 0.0371612876184389 0.0924974361044745 -0.0142074352309319 0.1738682741534109 )
( 0.2483964524505813 0.1162206803899211 0.0338455273331512 0.095109742815157 -0.0137680085541838 0.18725853034452 )
( 0.25072233316509 0.1206469061384704 0.0313270878755661 0.0995824349869057 -0.0115828885894936 0.200941382196938 )
( 0.2541267128510313 0.1258984283589151 0.030594101090498 0.105667542648627 -0.00774075117715 0.2133325882115074 )
( 0.2580127967203757 0.1319701680220132 0.0306580167802419 0.1128980373587292 -0.0027336728637802 0.2231611413079182 )
( 0.2615933929560994 0.1381729431525155 0.0309673307899848 0.1207585198299707 0.0025873968600836 0.231202970153827 )
( 0.2649686519707018 0.1441174315072702 0.0316530673881371 0.128501480967234 0.0080977116035259 0.2366712403270174 )
( 0.2680332223619291 0.1498644537870193 0.0327368864456261 0.1360777731733903 0.0135111102822395 0.2400620845197806 )
( 0.2713085623091595 0.1558341473185337 0.0340614203745208 0.1438075138361942 0.0188027299792934 0.2423098640770343 )
( 0.2753135547254194 0.1622094939317871 0.0345313847650398 0.1518068774640893 0.0239092824598573 0.2435257622283072 )
( 0.2180397698205663 0.0896862049260909 0.0922837677516755 0.0777808994916811 0.0209755254261606 0.1290227398159986 )
( 0.2163253774678784 0.0918081386777499 0.0914840931292995 0.0828742798482383 0.0152594807636528 0.1218564813379861 )
( 0.2160455534123908 0.0950318863594441 0.0848318049259997 0.0866735275071995 0.0075046782008964 0.1219329233315178 )
( 0.2168580854346619 0.0977213279936409 0.0775053721788826 0.09136379581488 -0.000262663520138 0.1301011315343158 )
( 0.2172146942028042 0.0990641409579621 0.0727718644813626 0.0947486902228479 -0.0056072705488957 0.1399596854281049 )
( 0.2172427160541038 0.1004138108665139 0.0681824734959291 0.0970835373161112 -0.0094044591254095 0.1515605980230112 )
( 0.2174579754878072 0.1015957033835873 0.0642666444763192 0.0986749413928918 -0.0122998639834404 0.1640678751001171 )
( 0.217813942589866 0.1027869458058624 0.0612117633413213 0.0998058256464494 -0.0138012305686695 0.1768367528512372 )
( 0.2196679916416803 0.1050519226187277 0.058681407227288 0.1012921036732979 -0.0136661683810746 0.1884000148586356 )
( 0.2226214271273052 0.1084679888366267 0.0569791768773598 0.1039807769221497 -0.011981133308847 0.1996265134865227 )
( 0.2266745605176266 0.1132383042881892 0.0566131775159867 0.1084132093619214 -0.0078287354674799 0.2093291549378251 )
( 0.2323525636910916 0.1196700709776567 0.056954909214162 0.1149162950503278 -0.0020825121839458 0.2173982212424958 )
( 0.2396641861936931 0.1273142149070386 0.0580926815533664 0.123389794849283 0.0043303910213027 0.2244373595194673 )
( 0.2479729043964246 0.1361495218842033 0.0588974711081429 0.1335827612128596 0.0109478973468725 0.2297323339524632 )
( 0.2553788263568968 0.1445532089251106 0.0595214526008982 0.1436281576152578 0.0167207069509404 0.233526294033387 )
( 0.2616604736027006 0.1518865386019499 0.0597030974610182 0.1525050111244201 0.0213052821203466 0.2359211257061214 )
( 0.2672882403512897 0.1586980523347279 0.0591237773532223 0.1606908650206953 0.0251709056439665 0.2365742151248046 )
( 0.2731308149543525 0.1655693748028087 0.0583171488393635 0.1688473049817586 0.0285194031357387 0.2366210516950432 )
( 0.2790022889183071 0.1729253631495936 0.0564327150517133 0.1771929970323107 0.0312582431647288 0.2359148774318319 )
( 0.2085166723588796 0.0889501176909389 0.0995057855360426 0.0927223232278768 0.015406647027281 0.1184212058711586 )
( 0.2040499188983605 0.0892954571666888 0.0970406630375218 0.097718691329004 0.0099910750826416 0.118757642866293 )
( 0.2017324900520208 0.0908991852560421 0.0898477149712675 0.1005168505757296 0.0024167577388787 0.1272459027678613 )
( 0.2001975183968758 0.0918533759166891 0.0830363840484847 0.1044276961216807 -0.004626688891467 0.142545238658073 )
( 0.1981636656033294 0.0913315085796717 0.078645810017597 0.106729411916592 -0.0086000232727107 0.1557035595238118 )
( 0.1975913913836126 0.090928559345431 0.0752935037339426 0.1074540197094345 -0.0110899233293179 0.1678811770383372 )
( 0.1983631719275517 0.0914682019859418 0.0727808628710328 0.1081200897365284 -0.0116314858214879 0.179130873508785 )
( 0.201037312269079 0.0929912815196589 0.0715271238125667 0.1090455699881733 -0.0101368154582044 0.1885686470009598 )
( 0.2065732619491267 0.0958143790809353 0.0714398044971159 0.1110285487892288 -0.0073857867304524 0.196486915307695 )
( 0.2142889626139076 0.1009708149512697 0.0720461067921433 0.115324862734021 -0.0031474905128832 0.2037108408893441 )
( 0.2246404441580889 0.1088706635671936 0.0730782950045071 0.1226497217739105 0.0024576768466994 0.2107200532274395 )
( 0.2363177204323495 0.1188892090496334 0.0736519790164228 0.1325797461655692 0.0087510852555285 0.2172697948826352 )
( 0.2484133862747658 0.1299093312969881 0.0736722128171878 0.1443152672337165 0.014751412552111 0.2226741372441012 )
( 0.2600522652753197 0.141016389063196 0.0723729018469573 0.1569211356695064 0.0196158613462014 0.2266046614747633 )
( 0.2690190910029119 0.1501457026832778 0.0704293197559792 0.1679520795047182 0.0230083231896907 0.2282810556541742 )
( 0.2760393534390244 0.1580150290419717 0.0676952022991695 0.177707934176011 0.0250717713331182 0.2286464587859647 )
( 0.2816743908777034 0.1654053851332635 0.0640331481899923 0.1866406381679797 0.0263725732140076 0.2272253539027493 )
( 0.2865301359801556 0.1720387896075035 0.0601297790261205 0.1947417270759384 0.02709609828336 0.2249095365316508 )
( 0.290559571058434 0.1786841561314606 0.0550216599512805 0.2024984666937128 0.0271346249973825 0.2211333920187822 )
( 0.1961334376377864 0.0838832626206508 0.1026791503617753 0.1080611378499694 0.011976831573476 0.1180808747826435 )
( 0.1898292107923628 0.0824745978424529 0.0981396844889747 0.1123361240018132 0.0069017948320719 0.1230952487379887 )
( 0.1858956910026304 0.0825447360659255 0.0902043886428809 0.1135142690801586 -2.566151463627629e-05 0.1358144732159848 )
( 0.1844035933941053 0.0821126548466742 0.0841552973739077 0.1152714126524773 -0.0056053808516897 0.1524431426758443 )
( 0.1838694391263643 0.0806810529513245 0.0805966612658512 0.1159069171363581 -0.0076412861356029 0.163916258673376 )
( 0.1861253821777981 0.0798424036149907 0.0787484151202432 0.1154981056253626 -0.0083259507601021 0.1732852376762078 )
( 0.1907773573149981 0.0811267149247123 0.0777797082004245 0.1156904452720461 -0.0069474796391388 0.1813951217860769 )
( 0.1985177460641613 0.0843720964088186 0.0777621262330665 0.1175051099942704 -0.0036057864174045 0.1872934385342444 )
( 0.2098347572582556 0.0897080286811585 0.0787921708512295 0.1218488830515849 0.0007090563127703 0.1927837370327723 )
( 0.223139195969442 0.0986762038767485 0.079400494233258 0.1297909296995301 0.0058004738736861 0.1995399213096246 )
( 0.2370282216408263 0.1101006484879565 0.0791668365771552 0.1408944950742955 0.0107158751499605 0.2067971139737971 )
( 0.2505155695732686 0.1228552529304113 0.0775957512593389 0.1544041992207556 0.0154512097899224 0.2127418729461859 )
( 0.2627819526452939 0.1356776572661404 0.0739374174787032 0.1689866228398365 0.0190813863700952 0.2166443938296177 )
( 0.2723473584454726 0.1469674271687402 0.0687785620622787 0.1824252389133425 0.0209357671498401 0.2178849052781603 )
( 0.2788261995256286 0.1560872348650812 0.063195013326926 0.1940145868558702 0.0217593892998991 0.2167373896942244 )
( 0.2831949991015605 0.1636133602013311 0.0571669975084795 0.2039115678077952 0.0217547063156499 0.2141114666774826 )
( 0.2865909642458089 0.1705147322346724 0.0509630892419601 0.2126341451438335 0.0210768043440422 0.2100338239734272 )
( 0.2891485676774695 0.1766875511273629 0.0445739748662475 0.2201976073294088 0.0198357746060463 0.2046346018947365 )
( 0.2910713406302007 0.1829377821586844 0.0375046354882358 0.2270978130657757 0.0183964729973214 0.1978129590007478 )
( 0.1830622547292426 0.0757945468312105 0.1015280559889072 0.1237060894324014 0.0102496233129811 0.1221803664463914 )
( 0.1767494840105061 0.0734945963076378 0.0952785298449817 0.1266330255675576 0.0057539925421502 0.1292246652266891 )
( 0.1735649662853496 0.073049662317476 0.0874474041637255 0.1252035276986359 -0.0002722376224322 0.1424043792825044 )
( 0.1739664896679121 0.0719165805612335 0.0824327259110926 0.124021792864732 -0.004247120999135 0.1559885860113866 )
( 0.1771665551427756 0.0707003903663456 0.0801035231130989 0.1229824682662064 -0.0047335021805252 0.1641514243623099 )
( 0.1840192116501355 0.0709279282207757 0.0794451131130431 0.1224840337454965 -0.0035502937606589 0.1705046002471737 )
( 0.1937975614058092 0.0742549619776834 0.0796963083563279 0.1236550472468803 -0.0007909657379324 0.1763936716696627 )
( 0.2057044647779653 0.0806417050495613 0.0797068734148338 0.1280908307486965 0.0030672743992468 0.1815603032484883 )
( 0.2193016355511187 0.0893886178302712 0.0792903029434964 0.1361333991711072 0.0075235621393477 0.1868073071988292 )
( 0.2334995640121343 0.1014160632174036 0.0778090287360996 0.1476536107885201 0.0118374392315802 0.1934067989281497 )
( 0.2466470468040751 0.1152705924600159 0.0739960450358112 0.1624060911745893 0.0151415293638675 0.1994129498007585 )
( 0.2582703995691977 0.1294959158303519 0.0685528136231573 0.1790968252337373 0.0174939053526757 0.2038139031048021 )
( 0.2676439662699798 0.1425109835096822 0.0615741031282032 0.195012672671789 0.0184237702626632 0.2056663816064057 )
( 0.2745947225352587 0.1536529127583956 0.0535916478948285 0.2088845161727792 0.0177768743477642 0.2041089497811768 )
( 0.2790205257765041 0.1632501376022286 0.0457617681127631 0.2211714102181436 0.0168183487333444 0.2006072779308517 )
( 0.2814873048832828 0.1709824078312377 0.0382615495746352 0.2313661745877388 0.0156549429615722 0.1959034578588704 )
( 0.2835810472470841 0.1782394478439719 0.0310752913893308 0.2400849693717419 0.0140489963582223 0.1901249049294426 )
( 0.285908605181275 0.1859469593662737 0.0239296101098617 0.2481513783629344 0.0123179700366025 0.1832244554356927 )
( 0.2885999597285746 0.1942738051437294 0.0168592710940025 0.2554776630663305 0.0105625200265782 0.17521586149186 )
( 0.1716631207130134 0.0666591061535306 0.0969711590908703 0.1376483131897113 0.0096108783503199 0.1266611308339463 )
( 0.1664950219840487 0.0641152958093942 0.0901105052216781 0.1382113048029292 0.0057897192693621 0.1330240666010266 )
( 0.1660684199656641 0.0637737551850622 0.0832745407699894 0.1338750725688142 0.0006679641034045 0.1437763351079702 )
( 0.1694616776413668 0.0630790589868498 0.0790013939868494 0.1308094519798433 -0.0016317431004412 0.1536126446646774 )
( 0.1763330352118312 0.0632041731547042 0.0773612146637932 0.1293674116521761 -0.00081773960434 0.1590366914782108 )
( 0.1868132853644673 0.0659397284790068 0.0773552919254183 0.1298855633931645 0.0015067591689256 0.1641668751761119 )
( 0.1989733817758252 0.0722218958327815 0.0770242918017303 0.1336275683692274 0.0053043449474515 0.1691476004867157 )
( 0.2121344118473898 0.081606980415636 0.0757447254415765 0.1416310249189154 0.0091215096767709 0.1742709677232991 )
( 0.2254306530153073 0.0932638073626593 0.0732509565772471 0.1536626322061252 0.0122886550694075 0.1799653989232089 )
( 0.2377052776564857 0.1074544068680901 0.0685250463950014 0.1687690691284546 0.015064787195958 0.1857814415162343 )
( 0.2490036374493663 0.1228664343220392 0.060937725262752 0.1867801104978486 0.016455207934289 0.1902079654949153 )
( 0.2589986612836155 0.1377911590377165 0.0525468263925978 0.2055417226049011 0.0163532036822723 0.1933159160886975 )
( 0.2660992524285361 0.1511879888067644 0.043747760537044 0.2225595962625727 0.0151597547360134 0.192800428082136 )
( 0.2706263695622898 0.163051163715569 0.0347002071623584 0.2378177488759278 0.0131818136351039 0.1889352240450045 )
( 0.2738245170314092 0.1736028437366051 0.0266271177130321 0.2507896153436204 0.0114050540125375 0.1842042970952188 )
( 0.276486407764371 0.1832719281053172 0.0191286532383421 0.2621870734237861 0.0096363427813926 0.1785736621195998 )
( 0.2794363542423613 0.1932683123549242 0.0121963714354975 0.2725686265488072 0.0079022399686287 0.1722158108562346 )
( 0.28363442677447 0.2043551196911975 0.0058193004043396 0.2823098870533654 0.0064013698033732 0.1653807576406576 )
( 0.2891419683381532 0.2163164326294476 0.0001972839904386 0.2910095704529674 0.0049131819233328 0.1579238272447123 )
( 0.1621352796727382 0.0577377323752715 0.0901018535206155 0.148926565098075 0.0096645653095178 0.1285748307228476 )
( 0.1588789554278609 0.0554916993583409 0.0830743446535327 0.1470991053867552 0.0061765998620049 0.1326781731836765 )
( 0.1615198299386355 0.0557630044211778 0.0774282603367102 0.1405254078572206 0.0022676427573444 0.140557998728751 )
( 0.1681187106390266 0.0565456558986914 0.0741724556017109 0.1366008058591495 0.0015594133576402 0.147639947691087 )
( 0.1776456547642601 0.0591171953644739 0.0726373418369902 0.1361379266156628 0.0033480368590976 0.1516051546634994 )
( 0.1894548095215501 0.0648287158262449 0.0727125583900837 0.1387766687560109 0.0060747795045473 0.1564922744702455 )
( 0.201303649603263 0.0739154586001898 0.0710378735470085 0.1459014478208833 0.0097896125365227 0.1612157281444075 )
( 0.2141762696925016 0.0857340398303003 0.0676774653179943 0.1573395673864183 0.0128469837146314 0.1668552874352255 )
( 0.2264121366576043 0.0997962124441865 0.0628666534471517 0.1729913014869279 0.0147298730179295 0.1732968820644428 )
( 0.2362548212785866 0.1153467368549883 0.0549683492210121 0.1923347502611092 0.0157697957325805 0.1778406571764057 )
( 0.2456415126055885 0.131582888079854 0.0454099986788761 0.213141474198115 0.0153351881156893 0.180836280321304 )
( 0.2541310710748095 0.1473082604505356 0.0355892722048179 0.2333761976191265 0.0135346336516439 0.1824068464741259 )
( 0.2602079274967108 0.1621284639057647 0.0259905109011282 0.2523847899479751 0.0110654923318065 0.1798545917656789 )
( 0.2644783933861857 0.1762268003652933 0.0171799370615779 0.2699363275246225 0.0086806867272143 0.1750339830153406 )
( 0.2681687298052481 0.1892351032383882 0.0096265901353711 0.2848670833873006 0.0067082089576167 0.169965151836079 )
( 0.2725893280295722 0.2023207728322804 0.0030479796115896 0.2987287050670628 0.0048727681204348 0.1644130803837649 )
( 0.2777224412572802 0.2162973979585657 -0.0024329503811296 0.3120128671317715 0.0034728170738918 0.1584240536339688 )
( 0.2850077809789786 0.2317123021979296 -0.0069741360374757 0.3244133533029044 0.0022987545080439 0.1523857027119599 )
( 0.2953312295107607 0.2488048897012643 -0.0105575481591999 0.3354674736047908 0.0013505894672981 0.1461986024284682 )
( 0.155249602191663 0.0500364817226015 0.082620207980362 0.158620682100599 0.0095228561348924 0.12923835329212 )
( 0.1537931909768286 0.0490907599192466 0.0754299129618302 0.1542244668480793 0.0063498457629406 0.1308368373015774 )
( 0.1583793727157005 0.0510416058778735 0.0703825872510885 0.1461217817616086 0.0040748411730211 0.1359853037625376 )
( 0.1672630287842352 0.0536433147341756 0.0679123440705485 0.1426435748229818 0.0046727308198046 0.1408380020715696 )
( 0.1785728852378404 0.0588401434664901 0.0670302990157607 0.1437216393540514 0.006988364679808 0.1446103214911931 )
( 0.1903969633511905 0.0669390729254382 0.0660079841084423 0.1493394605977488 0.0097483514876373 0.1488681177036971 )
( 0.201145730558322 0.0778740762046814 0.0623653170952447 0.1600879322009191 0.0126871853388182 0.1532666645998857 )
( 0.2123759935312603 0.0913919001763073 0.056559241433419 0.1756876345222124 0.0146256644299537 0.159371248095763 )
( 0.222647862511548 0.106639113541096 0.0492225440947216 0.1948829001614194 0.015402661535572 0.165706015855151 )
( 0.2308889831264939 0.1230948661839133 0.0398357994750798 0.2171902435695262 0.0148964745250652 0.169742136361665 )
( 0.2389842466473857 0.1407679945331217 0.0298605028313392 0.2407778538841353 0.0130224060067149 0.1717925585014017 )
( 0.2465177011258148 0.1586224003058743 0.0200501533309987 0.2636230137614058 0.0103030340258624 0.1716450241514462 )
( 0.2525778483946278 0.1758412780803745 0.010795188295416 0.2853723412906553 0.0075848955270939 0.168493434757929 )
( 0.2582361986837461 0.1928209454843304 0.0031930321313677 0.3054417247462447 0.0052573359794815 0.1640959828304354 )
( 0.2640969737761078 0.2095046169556418 -0.003029030424887 0.3237563616146129 0.0032499932120985 0.1590539463891818 )
( 0.2710269894853236 0.2270258626100343 -0.0080428543872561 0.3416641149570663 0.0016833187671689 0.1538514594323761 )
( 0.2798429644463865 0.2462041348402769 -0.011733335094383 0.3590813863374457 0.0006654023573529 0.1485141099519862 )
( 0.2921960046150285 0.2670300457116252 -0.0143889220847342 0.3749115922272436 -0.0001000370161878 0.1431350241331521 )
( 0.3093530813075186 0.2898822727787256 -0.0160604389716118 0.3884096592202926 -0.0005794390490649 0.1378568481474498 )
( 0.1498049953782857 0.0450124860248766 0.0749002457751337 0.1659905339073496 0.0087405148453483 0.1289059160280162 )
( 0.149672518395922 0.0456822358909045 0.0680368788531993 0.1593504318120863 0.0065514699462068 0.1283512226967725 )
( 0.1561747394623029 0.0490862706228981 0.0632462492756965 0.151524710288856 0.0057967538589341 0.1311230199850079 )
( 0.1656530954169333 0.0537325274859201 0.0605778286929881 0.1492727639614285 0.0072866342135815 0.1339281451440926 )
( 0.1770081760570515 0.0611436300500596 0.0590395659440766 0.1524595193008664 0.0100617065130494 0.1369388690597487 )
( 0.1879943552139745 0.0710989443835614 0.0561348230739629 0.1613667316315324 0.0127670807757525 0.1406333351933039 )
( 0.1976925255926576 0.0826286768740447 0.0510695876179277 0.1755443424297646 0.0146416573100963 0.1454141836172721 )
( 0.2073075196557514 0.0966939052719745 0.043907426590195 0.1948628689656526 0.0153287985462365 0.1521339576922387 )
( 0.2160797962277582 0.1134979484611019 0.0351048217453279 0.2177923650835418 0.0148049324235409 0.1583670190788675 )
( 0.2237375431837563 0.1313771155287608 0.0257778083813986 0.2428913238029815 0.0130193211910843 0.1625009753355829 )
( 0.2310742705662782 0.1506851655003721 0.0163488896282816 0.2696496378979188 0.0101727919547313 0.1639355878077243 )
( 0.2386778582903303 0.1714947046537415 0.0072423822269877 0.2966975213452059 0.0070559963445669 0.1627016552546969 )
( 0.2457885257256884 0.1916501524741199 -0.0005801246260001 0.3215160636708613 0.0046044585664296 0.159506652811854 )
( 0.2534014647693963 0.2122903790015193 -0.0066469795103208 0.3449695517834802 0.0025534725353844 0.1553354808380883 )
( 0.2624908217180356 0.2339632566007517 -0.0112459367636064 0.368356287365875 0.0009118781632466 0.1504937786607937 )
( 0.2732630804050132 0.2570122548944332 -0.0146289061614616 0.3916270673502974 -0.0002800603944951 0.1454520645492367 )
( 0.2873818794897235 0.2820361557688275 -0.0168198275292857 0.4138928217780278 -0.0010275805199106 0.1405757401116371 )
( 0.3064282635749824 0.3088013063375332 -0.0178551429882886 0.433249170295273 -0.001184256063093 0.1359512231102686 )
( 0.3322377391348392 0.3386882013437248 -0.017893362049643 0.4498574829156614 -0.0008810369645008 0.1314125729451656 )
( 0.1436523739537756 0.0425746914266399 0.0664247885423915 0.1714267698440063 0.0073241365092051 0.1277712704244728 )
( 0.1447643407869325 0.0444238847860725 0.059875747399201 0.1637968610102396 0.0063660345750536 0.1253073768979365 )
( 0.1537156149209058 0.0491790536152746 0.0559031860061768 0.1569575829242185 0.0071593623536292 0.1260611666333412 )
( 0.1632944146497612 0.0555849775298534 0.0528295461246056 0.1566350608964369 0.009449878677258 0.1272055332879579 )
( 0.1738066985959151 0.064044140791725 0.0501328329089911 0.1628668537902477 0.0122267418311489 0.1292849199186984 )
( 0.1833978970446631 0.0750458382270245 0.0456279027735429 0.1748767505659126 0.0144912628465942 0.1331304170041028 )
( 0.1924615970526715 0.087705861892088 0.0396322032418001 0.1920194823455603 0.0154902492590105 0.1392401287877512 )
( 0.2011315285619657 0.1029610368034989 0.0317801603802742 0.2147147558040342 0.0151350397738841 0.1464752519743082 )
( 0.2084166345285309 0.1206154412731112 0.0229450585460408 0.2410533470251153 0.0134521301116607 0.1524285011916942 )
( 0.2153126065240829 0.1398644700119063 0.014198392207393 0.2700034558327506 0.0105044366301163 0.1559935388208547 )
( 0.222531248080499 0.1614420508032371 0.0054854031527776 0.3008057117588933 0.0073369014771788 0.1569759634102827 )
( 0.2308706585943928 0.1852311985642082 -0.0025214444030872 0.3322922949174589 0.0044308377775848 0.1553747435335829 )
( 0.2402641167050332 0.2098085172945299 -0.0087467203004919 0.3620044486753699 0.0020544715090442 0.1518163010328056 )
( 0.2512812742594567 0.2356194156904508 -0.0131832249282883 0.3906881930887041 0.0003651287920043 0.1477422565805691 )
( 0.2642647844558146 0.262916205737121 -0.0162694752547536 0.4202029671303419 -0.0006112536908634 0.1432388709314797 )
( 0.2796684492649532 0.2913745303315729 -0.0181763997457049 0.4489080936980006 -0.0012404955282081 0.138657366207672 )
( 0.2995662179213437 0.3220577147854853 -0.0190506243571198 0.4757554887378497 -0.0015484867897858 0.1342267895942785 )
( 0.3272107200584539 0.3565348527007281 -0.0187905721413119 0.4996616625211365 -0.0012500333311084 0.1301242192220082 )
( 0.3643908508171791 0.3954072541773524 -0.0178305792995568 0.5201051685458283 -0.0007471223785954 0.1263476871640671 )
( 0.1372063677658575 0.0417476262370518 0.0573416921334783 0.176494056953567 0.0054014357070827 0.1269226269677234 )
( 0.1394846409376362 0.0452572619606399 0.0507935649023377 0.1689602607967598 0.0056100438508244 0.12220751090448 )
( 0.1496489618345181 0.0509443397509522 0.0475453690539578 0.1627965918706876 0.0079113148646097 0.1206469687231832 )
( 0.1599336223716453 0.0583027115528591 0.0448908154659832 0.1646984988963223 0.0108691176395394 0.1206103084205073 )
( 0.1701474763655714 0.0673989666578747 0.0415728096942321 0.1735223337312782 0.0134817637550529 0.1230907747125243 )
( 0.178706056828714 0.0788636128953316 0.0359258220573398 0.1883463160891615 0.0152498647578171 0.1277195172845607 )
( 0.1865191556091923 0.0927075472895137 0.0287713406000846 0.2085002077975138 0.0157210482254972 0.1344109418681663 )
( 0.1933637755862974 0.109057739039464 0.0206313162529298 0.2350645134064709 0.0143289637667527 0.1417071588344917 )
( 0.1993213918617894 0.1270798494216973 0.0124230412638761 0.2655767932405554 0.0118933982616202 0.1473619840628262 )
( 0.206084543485067 0.1480045623565885 0.0043224492426332 0.2983139613731063 0.0086045994061698 0.1501306419629534 )
( 0.2144752289800996 0.1730711039607394 -0.0034585698777195 0.3343521487449972 0.005234170511792 0.1507416789498726 )
( 0.224510080687853 0.2006435065133748 -0.0098034253835197 0.3710738106499255 0.0026350815292484 0.1492320706109199 )
( 0.2365885710721666 0.2304166036931908 -0.0145210099246816 0.4072306443987645 0.0004480917181449 0.1454591031287087 )
( 0.2515332121286137 0.2622720045575679 -0.0174798458937505 0.4434273173167947 -0.0007835719044756 0.1412907511195333 )
( 0.2684974727003566 0.2944197445682855 -0.0190721260437485 0.4786693211650132 -0.0012717358974847 0.137191427035375 )
( 0.2892534659441008 0.3284150893439982 -0.0197115302258335 0.5124169674499045 -0.0014845681051633 0.1330809861587969 )
( 0.3171211960408325 0.3672743507235624 -0.0196056598799672 0.5459543406060537 -0.0014965270250583 0.1291878024831554 )
( 0.3550682887571026 0.411497220871066 -0.0186151049690456 0.5766148221592227 -0.0011353972316552 0.1256715173270748 )