/*--------------------------------*- C++ -*----------------------------------*\
| =========                 |                                                 |
| \\      /  F ield         | OpenFOAM: The Open Source CFD Toolbox           |
|  \\    /   O peration     | Version:  2112                                  |
|   \\  /    A nd           | Website:  www.openfoam.com                      |
|    \\/     M anipulation  |                                                 |
\*---------------------------------------------------------------------------*/
FoamFile
{
    version     2.0;
    format      ascii;
    arch        "LSB;label=32;scalar=64";
    class       volSymmTensorField;
    location    "0.007";
    object      tauij_LES;
}
// * * * * * * * * * * * * * * * * * * * * * * * * * * * * * * * * * * * * * // 
 
dimensions      [0 2 -2 0 0 0 0];
 
internalField   nonuniform List<symmTensor> 
13597
(
( 0.2286513499157341 0.0394099337489114 -0.0256473704253201 0.1021527216405523 -0.0088044148660436 0.1177824778957866 )
( 0.2318999966264367 0.040622232655128 -0.0226618999518683 0.102760856294425 -0.0088910515289613 0.1267900729168795 )
( 0.238453602476122 0.042806789114375 -0.0156385162380263 0.1034404273923768 -0.0094027939132073 0.1425940622946417 )
( 0.2460631653036434 0.0465619342055407 -0.0054649432179834 0.1049733657862736 -0.010058799644431 0.162476908217372 )
( 0.2530877070089139 0.0505264468147212 0.003185922763211 0.1062572686558421 -0.0103331795147068 0.1768808107105244 )
( 0.259998420759942 0.0535371146580418 0.0084629172546344 0.1068058596109498 -0.0099207240822636 0.1847483802148408 )
( 0.2657617361963508 0.0573084786969061 0.0127770434245241 0.1079177344260924 -0.0093792437434468 0.1889201208264669 )
( 0.272532846826762 0.061981309334103 0.0167583851019959 0.1086172339813031 -0.008741889155904 0.1908878307513684 )
( 0.2796700039922479 0.0669220408571991 0.0193401382336012 0.1091178279172506 -0.0085236725862808 0.190246759916587 )
( 0.2858960383010435 0.0726224149175804 0.0202751364704574 0.1098079434077649 -0.0083595440365743 0.1868940662251633 )
( 0.2937456114020666 0.0792306853488991 0.0197508760796333 0.1101158105909002 -0.0080474615085075 0.1824115536374423 )
( 0.3010134482609084 0.0862322179756705 0.0182538118733097 0.1106077700066325 -0.0085779495362487 0.1772748083625109 )
( 0.3086811563321148 0.0932405881590058 0.0160932744986066 0.1105709093931664 -0.0093201569839165 0.1707364773125134 )
( 0.3171101793236139 0.1004124986436721 0.0126417910515377 0.1100775720106087 -0.0104085624924694 0.1631334008404298 )
( 0.324474480077887 0.1070357076865431 0.0083852924593174 0.1091612278354021 -0.0114928572635705 0.154896573422744 )
( 0.3329219942091486 0.1133556119848677 0.0042334230388045 0.1080232500100948 -0.0125881166569014 0.1470753108010947 )
( 0.3421435542302189 0.1196684717263478 0.0013015176987551 0.1062528677313374 -0.0134322113347363 0.1398654713992863 )
( 0.3509869588260376 0.124319006479487 -0.001082660265399 0.1029212139508851 -0.0138754890170365 0.1325108503538458 )
( 0.3591117396112666 0.1284064154680464 -0.0038618126485108 0.0997050364605062 -0.0147166424610865 0.1254976416003204 )
( 0.2407874641777918 0.0439252059408991 -0.0335212286392678 0.1050378432017412 -0.0029529841747235 0.1566231195496887 )
( 0.2461199799064449 0.0458137133380783 -0.0305380832906349 0.1065970921052441 -0.0013152320827035 0.1705535915836664 )
( 0.2529684316424379 0.0492449236247049 -0.0226985293981453 0.1099972590235777 0.001019696619037 0.1881019631434842 )
( 0.260954253864699 0.0546880583947804 -0.0139993548813265 0.1159531041671891 0.0034762481835234 0.2053313564964534 )
( 0.2680419206667374 0.0594582183963588 -0.0081679774073086 0.1200207485608757 0.0057542050196117 0.2127471334639155 )
( 0.2740853419527086 0.0640901593286542 -0.0040268131358639 0.1230263107513632 0.0075898038928928 0.2150373092844519 )
( 0.2795063469133136 0.0695695652173433 -0.0007179725018203 0.1260488211050297 0.0089583440833778 0.2138155618354011 )
( 0.2856888114943771 0.07612836603849 0.001740930978667 0.1290995126868186 0.0104166745213835 0.2102676611925602 )
( 0.2928013205827838 0.0831552746151967 0.0030587055308034 0.1318879630825389 0.0109022740727389 0.2054204191464931 )
( 0.3000263603303381 0.0906976995497848 0.0038903347203596 0.1333995387713859 0.0106053608275384 0.1987522508926407 )
( 0.3083566766027577 0.0993008642914541 0.0037884219258943 0.1345051288594481 0.0099682422521499 0.1912943094697129 )
( 0.3157744974623548 0.1084622969837451 0.0037083045786971 0.1356904468715798 0.0086677426746007 0.1840989104978642 )
( 0.3237825276469507 0.1170063780572183 0.0039114017042519 0.1357240184114182 0.0067426423318517 0.1772239091938061 )
( 0.3326785143884896 0.1244951909296715 0.0039530503605495 0.1341390529103099 0.004186318418851 0.1714170104309575 )
( 0.3408346501495514 0.1310769086426579 0.0045649205842158 0.1318866667852218 0.002045871625908 0.1665556301814375 )
( 0.3475280269827142 0.1369780797009273 0.0055571532193327 0.1297084296716315 5.709770364870676e-05 0.1622271292539724 )
( 0.3529849756954892 0.1417797387517375 0.0075235572863184 0.1273577725394696 -0.0016704442643798 0.1588073953193465 )
( 0.3594724781509906 0.1448000294417456 0.0106941144083362 0.1238788384833213 -0.0029435768951138 0.1564219154191537 )
( 0.3653112369870005 0.1465259403945362 0.0134808800195911 0.1200811286663074 -0.0041950533175572 0.1550458995152489 )
( 0.2472383234078664 0.0522567037231838 -0.0396699441177324 0.108865556086733 0.0018493856805609 0.197043073040778 )
( 0.2508130915211975 0.0557000558919909 -0.0362686502810456 0.1124425218132823 0.0050923763732765 0.2122948490950003 )
( 0.2539401547277625 0.0607277509041317 -0.0273593762483686 0.1197744812232492 0.0103135752792699 0.2244856723531326 )
( 0.2580443084605648 0.068240818745335 -0.0187384728470965 0.1298990649541508 0.0156184892654509 0.230994541409908 )
( 0.2627277611029047 0.0754755056333407 -0.0131963843173055 0.1373436199261786 0.0199002412912388 0.229188552509313 )
( 0.268197234724858 0.082628053694441 -0.0086975756159698 0.1439489067116681 0.0226948639146755 0.2237927448156504 )
( 0.2733685461223401 0.0906449057109274 -0.0046517778586712 0.1496879095644102 0.0243653881261447 0.2158479165174449 )
( 0.2788320934031069 0.0999661763939543 -0.0016278991330205 0.1552109455773252 0.0257892571567174 0.207486776346975 )
( 0.2860572767571259 0.1094620250149422 0.000630853057337 0.1599529896206676 0.0257621639623559 0.1994570774161595 )
( 0.2944208673640324 0.118996976825357 0.003537012766106 0.1627231471200288 0.0245128515656847 0.19194368544059 )
( 0.3026075921287881 0.1284208007486256 0.0060100784772336 0.1641973507191924 0.0224647041075914 0.1857256870038383 )
( 0.3112241650744532 0.1373446752825154 0.0087333532868607 0.1650870441557433 0.0201466333792834 0.1815273877057013 )
( 0.3206917243672942 0.1447508276582989 0.0121426316931885 0.1647972164893394 0.0172952105659829 0.1790827883853241 )
( 0.3287145963510723 0.1500813688736631 0.0155084190385423 0.1628212135367858 0.0144583263743832 0.1777740769522389 )
( 0.3353226880061395 0.1538747156641699 0.0192890416560882 0.1600731298784397 0.0129333358797675 0.1780600938844132 )
( 0.3398430616331698 0.1563090695109516 0.022626403155554 0.1574254115358691 0.0118174736334825 0.1788279096416782 )
( 0.3425331930356505 0.1573138742411214 0.0260068057963293 0.1546555291064978 0.0111959014509278 0.1796919726263428 )
( 0.3451999358190636 0.1571987862432515 0.0299682577843415 0.1515947726221213 0.0113303902527571 0.1807781708893837 )
( 0.3469800542353431 0.156129095728694 0.0336484061309607 0.1478270439689558 0.01167200402301 0.1813230744530796 )
( 0.2429595781853268 0.0627071178613227 -0.0415482961219471 0.1135722291424764 0.005938818420126 0.2306107578982896 )
( 0.2416089404725463 0.068018097826121 -0.035576657864305 0.1204828161415567 0.0112898892454172 0.2418766334679634 )
( 0.2404774159759256 0.0750844747750175 -0.0250447889816178 0.1325271378548055 0.0198186910135099 0.242544543728768 )
( 0.2418763714205909 0.0857715666112593 -0.0154011295245952 0.1475636086688534 0.0275095132719779 0.236184286572629 )
( 0.2452416925190629 0.0967318763310475 -0.0084813871878396 0.1590833098831459 0.0325414636164016 0.2273631031987074 )
( 0.2500638374036736 0.1070908413567432 -0.0032433423414188 0.1689274656660254 0.0350605584809932 0.217225176358725 )
( 0.2558975583161962 0.1179608175584171 0.0013195070148562 0.1778154681871435 0.0358254695097721 0.2070786529407506 )
( 0.262491937829809 0.1289415678590787 0.0051530607538184 0.1848865445913385 0.035853395947635 0.1994566736417833 )
( 0.2704896802616698 0.1387457917941464 0.0082448584717039 0.1896778242502504 0.0342613119116982 0.1933274828324977 )
( 0.2780689509793099 0.1476507355740684 0.0111762459549525 0.193014694416231 0.0316773151903198 0.1890134702024677 )
( 0.2844187683481726 0.1553167356561537 0.014414665158491 0.1945144602265597 0.0287619975693636 0.1860664132838177 )
( 0.2925929685775789 0.161099051615721 0.0180472677301763 0.1935083775881463 0.0263530291106464 0.184944743153833 )
( 0.3003480318730339 0.1650034317444709 0.0226109293970875 0.1910173396129715 0.0247884319285243 0.1853732602263542 )
( 0.3054652009148088 0.1672042592590692 0.0269779995561328 0.1882684326992402 0.0242998964762637 0.1863569538696925 )
( 0.3084599691703686 0.1681297021730641 0.0307357512848949 0.1854545721431362 0.025099258472156 0.1878253367237886 )
( 0.3100145451641563 0.168386014330822 0.0339995334957247 0.1829276015445247 0.0264450174862035 0.1891006914085967 )
( 0.3109171444662948 0.1678436717650341 0.036923363943319 0.1802225184047923 0.0280014190903558 0.1895988134209625 )
( 0.3114218268304423 0.1669641402211544 0.039593816554936 0.1776905189560389 0.0300832053820392 0.1898793321132544 )
( 0.3119670249614298 0.1657680630954257 0.0415929863836728 0.1748096886489266 0.0323716026800776 0.189854523254546 )
( 0.2289543073739424 0.0730282545226943 -0.0365071974059393 0.1210218549070387 0.0110342464176665 0.2522314273191861 )
( 0.223569324889639 0.0800107484138816 -0.0267108429509539 0.1308716542384097 0.0190251148073879 0.2527607396942951 )
( 0.2215451931870906 0.090808698167986 -0.0148657373120777 0.1481108913631527 0.0299957817920542 0.2426161891144115 )
( 0.223101283958647 0.1050842445677041 -0.0048502589641436 0.1674035471369773 0.0383825966195766 0.2302628602605566 )
( 0.2264807328353928 0.1184669358241263 0.0021518201144618 0.1815377426218664 0.0423597687960665 0.218767821155715 )
( 0.2308631099349972 0.130743625600979 0.0068095115432034 0.1935264576870684 0.0436050823154814 0.2085900580247123 )
( 0.2360209453004294 0.1417719605987139 0.0105948720304845 0.2031124620080834 0.0425590098097989 0.200003101332672 )
( 0.24210199441311 0.1519128311501396 0.0133398406072505 0.2108054396398916 0.0402818258320923 0.1930162872332136 )
( 0.248147646524743 0.160101343085167 0.0161882242585518 0.2153824530913487 0.0377387667576407 0.1885182119046084 )
( 0.2531763785084013 0.1661084098635098 0.0187426499933874 0.2179948639561592 0.0349843633744417 0.1861488705678128 )
( 0.258880491008503 0.1711155672785259 0.0216522461576545 0.2191636744026063 0.033179976986768 0.1849261014515047 )
( 0.2653479349820272 0.1743908677665388 0.025644668617746 0.2174816763825147 0.0330713733374988 0.1848117018951786 )
( 0.2701234803368127 0.1762484299586355 0.0300586764353082 0.2149053468894833 0.0346642654750621 0.185293225911034 )
( 0.2733680756382601 0.1775004643177169 0.0339938931313663 0.2127542869715805 0.0373633633421925 0.1862541397490718 )
( 0.2752279342060139 0.1784177415417068 0.0368846188698324 0.2113389034180895 0.0404167161232135 0.1866843873478892 )
( 0.2761805940648497 0.1791360708625858 0.0390316955394167 0.2107383539218653 0.0435706202961571 0.1867903463404491 )
( 0.2770546175107164 0.1796588295097565 0.0405805431701024 0.2098051358712499 0.0465663283245805 0.1863316760334426 )
( 0.2785598436738756 0.1806274055732094 0.0418921020293162 0.2088934687572858 0.0497540758822756 0.1859805548382395 )
( 0.2810301188131185 0.1816603881804782 0.0426547178120458 0.2076985427082441 0.0528560375768035 0.1858505801574076 )
( 0.2092695511576714 0.0822812368237458 -0.0251783627149081 0.1297955058352078 0.0175651206649834 0.259117491526631 )
( 0.2015792549263592 0.0914282474439709 -0.01299598420694 0.1432303977625944 0.0280150426058006 0.2507527715086058 )
( 0.2012675892116397 0.1067779258944074 -0.0008915288597887 0.1657485022017149 0.0396901523704999 0.234002397112018 )
( 0.2050900454333353 0.1234644778168681 0.007589242549585 0.1878883514507465 0.0464566681427602 0.2201502139913642 )
( 0.2094173073270454 0.1367689331408629 0.0128563797613685 0.2025999650318653 0.0481879347425319 0.2088503721805703 )
( 0.2146498246622354 0.1482167094686877 0.0160395884980977 0.2150737913660337 0.0475074628071921 0.199638426078301 )
( 0.2186843842519012 0.1573784758149233 0.0179276527142924 0.2247784927208878 0.0449518639659391 0.1922881639680037 )
( 0.223154427161182 0.1650844747660192 0.0189421532511593 0.2329492706520635 0.0415920887701639 0.1855169484828228 )
( 0.2270399985830605 0.1711389593158147 0.0212800864611118 0.2381127025852706 0.039501865200037 0.1809791102683186 )
( 0.2301861832592668 0.1753199526398137 0.0240145498338225 0.2406945428209468 0.0387290582514558 0.1785820904467978 )
( 0.2345199222407248 0.1787852276665095 0.0267507059625882 0.2417982990015392 0.0395724908094814 0.1774309574985467 )
( 0.2379875217326146 0.1813067105265397 0.0300403733758303 0.2415395760074253 0.0420725814931901 0.1769051245429182 )
( 0.2409031268856448 0.1836303431607176 0.033595231410071 0.2410137129823627 0.0463172592441416 0.1765471450520076 )
( 0.2447305005305798 0.1865044713624634 0.036741433434197 0.2406178702044126 0.0508178484733643 0.1762099027171198 )
( 0.2479363351860877 0.1894831115228968 0.0391392488156828 0.2413854301245691 0.0550214116398935 0.1760916346477987 )
( 0.2506061989752854 0.1922943900222077 0.0407708407376821 0.2426176560201499 0.0588209564112671 0.1760570733432524 )
( 0.2538633805472951 0.1953565716315744 0.0418643244470359 0.2438219109669436 0.0621050101810681 0.1762625048666869 )
( 0.2587286713373676 0.199205273427356 0.0427930314340924 0.2447958978877374 0.0650414058715522 0.1766574658710618 )
( 0.2654966387160904 0.2032814870025565 0.043302629688139 0.244715329868329 0.067471135406145 0.1778582150443357 )
( 0.1869910501229397 0.0910987480726049 -0.0091856295183815 0.1398964582230834 0.0254877787526957 0.2560352080296102 )
( 0.181347523754616 0.1023829214590287 0.0039027050205403 0.1571002779295554 0.0372208005185885 0.2434209225607936 )
( 0.1848549698343495 0.1200197554686394 0.0135558395759322 0.1828765195353566 0.04762213614618 0.2251958492813011 )
( 0.1906891119011673 0.1370075922243112 0.0182223264798426 0.2063833666687664 0.0511222031883708 0.2107330497361713 )
( 0.1957545734088102 0.1488263212737362 0.0207000331662823 0.2219331003036459 0.0503484868017313 0.1996986038691827 )
( 0.200779941993651 0.1581239857932894 0.0223188967002167 0.2343765608042666 0.0479702492863862 0.1906066907553225 )
( 0.2038710215129225 0.165326388274857 0.0225965369959289 0.2447049104605317 0.0447865696150204 0.1823685508652241 )
( 0.2057352153129875 0.1702917880802522 0.022759209154616 0.2529006702406433 0.0425725003642612 0.1754192250979116 )
( 0.2069299070926245 0.1743615419714291 0.0246301361405275 0.258778347431383 0.0426862039415324 0.1701091008747969 )
( 0.2090599631211084 0.1783302949844663 0.026954278773552 0.2625409243838401 0.0446077552469158 0.1663941469544669 )
( 0.2117610338704064 0.1821131252775046 0.0292579138505617 0.2654131954706766 0.0479036797351269 0.1636989903218787 )
( 0.2148343133821 0.1862954003990194 0.0323065789125406 0.2679053628700545 0.0526925161283835 0.1629256008444345 )
( 0.2195436290736716 0.1912147615600332 0.0354121490627768 0.2701255295022913 0.0578102484079172 0.1634594111683522 )
( 0.2257617608385096 0.1970957267924216 0.0381748079729349 0.2728635260565815 0.0625382910926268 0.1638487408369738 )
( 0.2328202517307357 0.2033517528523128 0.0407264815722818 0.2756473557543309 0.0668439030934074 0.1649685987994604 )
( 0.239695531299344 0.2093839923407575 0.0425567421918952 0.2785619423422718 0.0702560127633664 0.1662845040313525 )
( 0.2471281072733662 0.2156430811658598 0.0440332089223014 0.2816983341390606 0.0729777132913285 0.1678529659741522 )
( 0.2566092950877965 0.2227003689712954 0.0452455272698233 0.2841795686869945 0.0749763760413976 0.1699375150605543 )
( 0.26846857272338 0.2302657958230949 0.0460691271778489 0.2851719905407111 0.0762094780660592 0.1726180205432225 )
( 0.1688556857896229 0.0985301158511634 0.0081304480012045 0.1510576493335345 0.0336097824612763 0.2492784808632449 )
( 0.1677082987312934 0.1113939175134166 0.0202551588019592 0.1708746946917057 0.044890569066185 0.2343013840614741 )
( 0.1751968246981919 0.1296955635947858 0.0258732324925682 0.1981847843532973 0.0528451800546586 0.2168796873061186 )
( 0.182146829816779 0.1446770678902426 0.026643811523195 0.2220765615757017 0.0533071140413566 0.202628942542597 )
( 0.1861599250543316 0.1540948704063703 0.0263349471214792 0.2386579164489338 0.0505266236427567 0.1907637471276308 )
( 0.1887998213441006 0.1607479275495797 0.0253982585199898 0.2521427449098774 0.046957348983791 0.1804259029310882 )
( 0.1894415251376014 0.1656183686050306 0.0248505153450732 0.2619814913396047 0.0448446276146904 0.1705667912225265 )
( 0.1888452173840555 0.1692096825218409 0.0248927249781204 0.2708173952352906 0.0451353557372619 0.1628245161194622 )
( 0.1882508163218603 0.1728395517013653 0.0259769389094348 0.2798395853004287 0.0473459471225903 0.156684605125496 )
( 0.1902014805544861 0.178252992436922 0.0281049306381516 0.2859898294792311 0.0513388720131445 0.1519634386444928 )
( 0.1937374352792123 0.1845859792207778 0.0307384957913196 0.2918305869182324 0.0566573164169534 0.1494306428998475 )
( 0.1998138937165259 0.1925141745593657 0.0344605399806942 0.2978431138409809 0.0628528428592355 0.1503340176944798 )
( 0.2093170790616725 0.2017631278084636 0.037646377976054 0.303110003776388 0.0678295794006692 0.1525979060208371 )
( 0.2197182938777833 0.2111359051617071 0.0402184869469679 0.3085978530289491 0.0716945338517186 0.1548705551243877 )
( 0.2303653501113257 0.2204808526307483 0.0428486253136533 0.3134334539831611 0.0750673305947132 0.1575432179961578 )
( 0.2415268558049108 0.2301756373320659 0.0450182475113817 0.3187450824165395 0.0774882040612218 0.1601011053668589 )
( 0.2535217741590747 0.2401507713569811 0.0470224369652259 0.3236866040820801 0.0792590193363323 0.1629311482454164 )
( 0.2673761849697593 0.2506871588814061 0.0487555483617282 0.3273435474055184 0.0802294208123591 0.1664879998017331 )
( 0.2833769407957325 0.2616116100704275 0.0501729029302627 0.3290892746896458 0.0803199775706561 0.1701605857853606 )
( 0.1566523263064023 0.1035714497921181 0.0247561036389893 0.1618333230956478 0.0404919444659879 0.2415685742311376 )
( 0.1602396920545312 0.1170184484409914 0.0340343582302585 0.1835493866143475 0.0503229370568685 0.2263192384350323 )
( 0.1704040480867582 0.134834382652002 0.034828686150918 0.2125294488363407 0.0551823231450814 0.209043777681078 )
( 0.1768775605538301 0.1471502655350977 0.0321360157977276 0.2365650374604017 0.0533013272315495 0.1939111728208472 )
( 0.1787342929621544 0.1537868186457927 0.0293697392059035 0.2535138054678161 0.049825000579994 0.180262463769545 )
( 0.1776613992710944 0.1577202287565068 0.0265150176790418 0.2681270931530569 0.0470094464250709 0.1686290702949365 )
( 0.1751248451228834 0.1608511550461334 0.0249780251228713 0.2791545804238087 0.0467421487040551 0.1576176467430394 )
( 0.1734995163233512 0.1649118177076548 0.0250299189393854 0.2904453652211695 0.0488523529563502 0.1488712190769873 )
( 0.1729645555797806 0.1698775560272502 0.0261084265609182 0.3025098587533675 0.0526766409976821 0.1430423283818926 )
( 0.1763481087859674 0.1778141161609869 0.0285468681585516 0.3120483690543625 0.0582469981772181 0.1392648280043673 )
( 0.1838544011977108 0.1884607458184729 0.0318060883758699 0.321135732228839 0.0642498224498875 0.1386594346604684 )
( 0.1942476162945999 0.200866662562308 0.0359124172480256 0.3307171441189595 0.0703186754307647 0.1415501339376587 )
( 0.2083109981089989 0.2151946318709264 0.0398832401708426 0.3398226861332811 0.0752113035821274 0.1449906077254596 )
( 0.2228204990530875 0.2286939158154937 0.0429144754850844 0.3481285267070092 0.0783010965342632 0.1489987224886843 )
( 0.2361389482222578 0.2407922629796523 0.0456718466749862 0.3553310131142357 0.0804788153360784 0.1532307799805206 )
( 0.2507655178234845 0.2542226617491556 0.0483413067293886 0.3630987178916759 0.0820422083795859 0.1569644263898252 )
( 0.2665998221559112 0.2680267771137527 0.0506581145632006 0.3698523308606658 0.0827140976561747 0.1606112393657794 )
( 0.2845565871528188 0.2823157064537515 0.0529484365717665 0.3746483726782419 0.0825733299937365 0.1646619249971143 )
( 0.3050213306630787 0.2971874452088244 0.0549082210556276 0.3770205443481734 0.0815236699298633 0.1689085989249541 )
( 0.1524409017950793 0.1069112517926787 0.0397560922634454 0.1729900849410633 0.0464518014132267 0.2355382416420029 )
( 0.1604867795968177 0.1201937728741877 0.044598620576504 0.1964186569437768 0.0539591949807459 0.2198267262113099 )
( 0.1690753359796337 0.135769013131654 0.0397638743556085 0.2265950991903171 0.0551419749740075 0.2007208460130778 )
( 0.172317405586164 0.1446227573574965 0.0340202975228604 0.2501833793106738 0.0517801006317621 0.1840992654941984 )
( 0.1709075625520551 0.1489287771909947 0.0295241910956004 0.2677459820401122 0.048946156664891 0.1693127491733468 )
( 0.166893657900993 0.1514495545415655 0.0264424739824701 0.2829699637508102 0.047973386852503 0.156381439674088 )
( 0.1624814597383738 0.1539970610927229 0.0243116795650019 0.2973483645269475 0.0491938419675827 0.1441104884463867 )
( 0.1603479882068593 0.1591833681747288 0.0242394068678348 0.3129983657261631 0.0531976179985269 0.1350654232873395 )
( 0.1617916189829517 0.167197864721152 0.0261365521555205 0.3276304442668072 0.0587927861690873 0.1303422038381583 )
( 0.1681861205753098 0.178810329330016 0.0288972259773832 0.3410797855457314 0.06486180738476 0.1287611551369963 )
( 0.1800361235297893 0.1943806400989454 0.0327944928278066 0.3538049904879494 0.0708255396556733 0.130991688129415 )
( 0.1950487195837174 0.211749265142306 0.037337296690052 0.3660711100979824 0.0760893165400249 0.135935092317033 )
( 0.2116935711999232 0.2297599329488313 0.0418656115431547 0.3784773277912521 0.0803813908064513 0.1410300396322304 )
( 0.2289225470981383 0.2472032301106309 0.0456577639916507 0.389813212047602 0.0829099740134008 0.1463776988372488 )
( 0.2461294131520519 0.2639865676726733 0.0489967390726098 0.4004221252732672 0.0841910559768972 0.1510783898999968 )
( 0.2641476618478385 0.2814724099329556 0.0520065312440694 0.411052871838741 0.0846736091391471 0.1553111317051443 )
( 0.2834918106101551 0.2993888023266384 0.0544933849455451 0.4203480986407959 0.0841027856742612 0.1593128309658175 )
( 0.3057011970061361 0.31796078608641 0.056943269529519 0.4267929802415936 0.0827409230446937 0.1631437830335673 )
( 0.3313376659651914 0.3371839483766699 0.059051741208829 0.4297299540796844 0.0805946699626404 0.1672974746940396 )
( 0.1554716707417145 0.1084116176333857 0.0512879962581498 0.1826524180329367 0.0505829079511619 0.230943632535452 )
( 0.1639226531287219 0.1204278027180445 0.0505770417926066 0.2069666765247879 0.0550988544203987 0.2137003740827839 )
( 0.1690361251288732 0.1332277128162151 0.0413868596528556 0.2387292134738582 0.0540612568237186 0.1919312435708072 )
( 0.1676247987909281 0.138436376176816 0.0335110147325092 0.262592271315095 0.0506299803786606 0.1736171798716583 )
( 0.1622094336047618 0.1407429053667886 0.028077345885128 0.2812216089540467 0.0487252347827517 0.1574502036342858 )
( 0.1564975522082183 0.1428980458923963 0.0246686877026697 0.2985640133752342 0.0493656246686615 0.1428964933565736 )
( 0.1524677024619394 0.1464967394666855 0.022967532369702 0.3167083377993751 0.052429809344022 0.1311438430128716 )
( 0.1513154516643769 0.1535411653560557 0.023373630927103 0.3359504481243404 0.0581776756173403 0.1241410684593512 )
( 0.1551786186879029 0.1650986112864587 0.0257941786987557 0.3544445289096474 0.0647412974652802 0.1211667760282549 )
( 0.164328526412404 0.1812165505358602 0.0291721803382205 0.3724120759205974 0.0706251460067466 0.1219040810876446 )
( 0.1790008409673814 0.2014913080668782 0.0338445756533107 0.3891196096882373 0.0761016020047305 0.1263973389481569 )
( 0.1981935130515011 0.2244453240276021 0.0392788767753036 0.4048871780770848 0.0807292303481361 0.1327943138285702 )
( 0.2175244425513793 0.2463224528991043 0.0440821911788444 0.4200162109190522 0.0839460328781986 0.1391056093746994 )
( 0.237315660638204 0.267596917183139 0.0483102553354736 0.4340097871441515 0.0855964343406903 0.1450184200430532 )
( 0.2583080257095031 0.2896717668895643 0.0520712657236465 0.44859357854716 0.0861142501963578 0.1498633580984255 )
( 0.2796401153943227 0.3115991072929125 0.0550874204708797 0.4630166427862417 0.0853607218060648 0.1540569127569597 )
( 0.3032181795187164 0.334246436913257 0.0578885247205378 0.4753863210795026 0.0838177886067058 0.1579771352628676 )
( 0.3300877274782104 0.3575743427468428 0.0604636096243747 0.4837513176600453 0.0818086421483452 0.1617822926629425 )
( 0.3615609055392684 0.38190705286338 0.0622301875808228 0.4878355657974277 0.0789324068574228 0.1659686728572607 )
( 0.160509650321722 0.1072924657564129 0.0585435889559999 0.1918598078786951 0.052481947771796 0.2260047996686658 )
( 0.166813540524529 0.1172849289146958 0.0528201592483054 0.2172595342535636 0.0544886077257007 0.2063559735170298 )
( 0.1674686606890748 0.1272768929104924 0.0407745251568411 0.2499115548505401 0.0524889294948518 0.1828640142315677 )
( 0.1617482794932148 0.1297822900374949 0.0318922753162134 0.2739506962506762 0.0497975710456228 0.1633575495357451 )
( 0.1541943940678387 0.1310812396166387 0.0259752573551654 0.294429648334871 0.0493027813840279 0.145845701497799 )
( 0.1478282340876335 0.1335926603827097 0.0221323318513721 0.3153418439118909 0.0516230209211308 0.1309763947577622 )
( 0.1448994497965783 0.1395462019714488 0.0210503042945747 0.3370397035784769 0.0564217558561342 0.1211031117464662 )
( 0.1457548128839607 0.1501095036108003 0.0222901413184646 0.3600698799086536 0.0629983370864954 0.116010420084103 )
( 0.1516931629942704 0.1653807990992901 0.0253498610708257 0.3827620815449897 0.069492128428327 0.1147722751042675 )
( 0.1633225163846404 0.1857351057695927 0.0297278757562592 0.4047946667805913 0.0751632850158234 0.1177264516642538 )
( 0.1801428913135298 0.210237095615336 0.0350889161093475 0.4256581479284936 0.0801217370165521 0.1240388030512433 )
( 0.2017454882454893 0.2378467036291462 0.0410220810740303 0.4461769896997348 0.0839706733971932 0.1311552130386143 )
( 0.2243890307915647 0.2649532690428826 0.0462647946105083 0.4653579402069329 0.0861133776712789 0.1377703301519532 )
( 0.2476537337897355 0.2913142874946874 0.0509402005961247 0.4828081857589788 0.0868813045880734 0.1440007670892358 )
( 0.2715133457545874 0.3179072409808876 0.0548403829694951 0.5015459593129626 0.0866789913376292 0.1491474132482373 )
( 0.2956459590650186 0.343989670393153 0.0578497331189718 0.5198348158750861 0.0852722646278725 0.1533129167023431 )
( 0.3231581940082955 0.3714308429820243 0.0604754741675667 0.5354195346374087 0.0830133650007832 0.156974005419985 )
( 0.3563189313151864 0.400994735402474 0.0629238370175648 0.546440721510346 0.0805339277999332 0.1608505634495863 )
( 0.3961719522010883 0.4322042036261117 0.0643263523335342 0.5520417972492675 0.0769038915161273 0.1649725238551871 )
( 0.1669422592412908 0.1037367254226444 0.0622458833629743 0.2012879223557165 0.0526467658070588 0.2207799264096832 )
( 0.1695641162692012 0.1113520043059983 0.0523261524361476 0.2281375458731429 0.0532947391255959 0.19888569459662 )
( 0.1644209777938905 0.1185476507866484 0.038505448232978 0.2604115560216145 0.0511519024086361 0.1743082071339034 )
( 0.156023435840837 0.1198634418663125 0.0293479736457463 0.2847805364976137 0.0491043225375409 0.1537730503376138 )
( 0.1473357175817699 0.1213154219132789 0.0230965523950215 0.3083439785877139 0.0501919901506948 0.1359378573996276 )
( 0.1413306999522603 0.1254888128515137 0.0195493931213532 0.3330048539519408 0.054121721440769 0.1215582287394481 )
( 0.1394275169735425 0.1340313677279102 0.0191859771398229 0.3585335578176861 0.0600580034631023 0.112866242876849 )
( 0.1417895577961002 0.1476944175163056 0.0210646605285496 0.386099979053758 0.0670166302622565 0.1097157657960092 )
( 0.1499428606991494 0.166885027480741 0.024802269370971 0.4127091937231905 0.0734747267469972 0.1109212778226148 )
( 0.1636834909925113 0.1914353313377467 0.0301511592122459 0.4377402861373921 0.0788655980091808 0.1154580080570141 )
( 0.1828802424742913 0.220958729260244 0.0364158634725727 0.4634901325118675 0.0833351664068786 0.1228694493826915 )
( 0.2061267721458871 0.2527997600745409 0.042703307955255 0.4886046430926601 0.0863143738255145 0.1307968699348949 )
( 0.2309082095589164 0.2844807397003515 0.0481481856726544 0.5129628636703317 0.0873814209092191 0.1376057599575589 )
( 0.2574232818354227 0.316479734773998 0.0530443750967145 0.5363556106484066 0.0874096590024613 0.1437521822583901 )
( 0.28348411352569 0.3472132509423098 0.0571056798890771 0.559905613593994 0.0868350460735984 0.148614130418192 )
( 0.3110138603970661 0.3781098652323192 0.0600703304942531 0.5820954450101619 0.085113261473904 0.1524742830921424 )
( 0.344075159075961 0.4122259704944924 0.0622687970864831 0.6021605447383466 0.0822408894432803 0.1561267648044511 )
( 0.3847407104203411 0.4492936947391715 0.0642432065227248 0.617212519287967 0.0790175240656903 0.1599896148217762 )
( 0.4348254746896033 0.4877957299064991 0.0654947400968217 0.6224171637521682 0.0745859515544485 0.1639479360010864 )