/*--------------------------------*- C++ -*----------------------------------*\
| =========                 |                                                 |
| \\      /  F ield         | OpenFOAM: The Open Source CFD Toolbox           |
|  \\    /   O peration     | Version:  2112                                  |
|   \\  /    A nd           | Website:  www.openfoam.com                      |
|    \\/     M anipulation  |                                                 |
\*---------------------------------------------------------------------------*/
FoamFile
{
    version     2.0;
    format      ascii;
    arch        "LSB;label=32;scalar=64";
    class       volVectorField;
    location    "0.007";
    object      U_LES;
}
// * * * * * * * * * * * * * * * * * * * * * * * * * * * * * * * * * * * * * // 
 
dimensions      [0 1 -1 0 0 0 0];
 
internalField   nonuniform List<vector> 
13597
(
( 17.758011150291747 1.9923782931424985 0.0776046273244805 )
( 17.765925546394765 2.038714715043669 0.0829757633064247 )
( 17.793332950990607 2.1310937870651747 0.0918324562681721 )
( 17.83354714259127 2.2488961803801133 0.101592255834664 )
( 17.8682814916494 2.348079339816267 0.1091583176981877 )
( 17.893755534397542 2.428497151437807 0.1134544572803243 )
( 17.92122695998804 2.50850842626622 0.1155907615562725 )
( 17.95318652535288 2.5930051623133363 0.1181411390915305 )
( 17.987516268323205 2.6773452417076027 0.1188917875278793 )
( 18.022158788131595 2.762310395550557 0.1176035084435869 )
( 18.05951336087385 2.856007920345851 0.1158556321051769 )
( 18.10065747248645 2.949794160757428 0.112715367237684 )
( 18.14496479106637 3.042147774307673 0.1086491436382202 )
( 18.18962917500613 3.139322687253385 0.1044075208441717 )
( 18.23215525952367 3.238342692860159 0.1002448042764642 )
( 18.27734237094452 3.335974354077348 0.096805863645388 )
( 18.326376901964824 3.429752882826091 0.09434676304923 )
( 18.376019294381887 3.5224809747536567 0.0916015489921512 )
( 18.425899252547204 3.618605586610366 0.0878822674308425 )
( 17.641938673976437 2.036175120057418 0.0939154584627694 )
( 17.634801100962836 2.0956729550633786 0.0988333741873352 )
( 17.642719174838607 2.217682257934221 0.1034099337721989 )
( 17.655211656328085 2.35703015416234 0.1051593665091771 )
( 17.66111958953836 2.463285168884818 0.1051315716708692 )
( 17.66328965090076 2.5605433320355337 0.103820973988937 )
( 17.668602188594004 2.6589254794385453 0.1009867170177232 )
( 17.675129254811083 2.7614205271038226 0.0980728412669981 )
( 17.685234126070892 2.8650491939303904 0.0944016086852066 )
( 17.69570201856042 2.968539489780996 0.0902432455838191 )
( 17.706297574217828 3.0827906158482112 0.0860945647170114 )
( 17.715156029884078 3.203488138059837 0.0825161510852394 )
( 17.723364871708718 3.3247663963704355 0.0790526085075959 )
( 17.73471859971198 3.4478096566396284 0.0762687693413123 )
( 17.74634786415628 3.567061079696356 0.0758131569867752 )
( 17.75874961241433 3.6803210607350634 0.076362376019632 )
( 17.770995241081803 3.784682898198513 0.0776939299652778 )
( 17.783406965446346 3.8900565869744894 0.080204904196058 )
( 17.80049973028007 3.9939475313846136 0.0828024598746446 )
( 17.52491812731934 2.069461467370364 0.1030952833047655 )
( 17.49663810540423 2.139852244034278 0.1051890644649868 )
( 17.47656503509351 2.2823430783085232 0.1024053082056212 )
( 17.455452912819418 2.436299926843076 0.095161726271745 )
( 17.431230221082757 2.5500378039938174 0.0884863524971893 )
( 17.410625244338316 2.6616061260162853 0.0819168931176758 )
( 17.392751814005326 2.7765111982331137 0.0761215930089902 )
( 17.369430753967944 2.892107689854515 0.0714253282921413 )
( 17.34978958247568 3.012084735616942 0.0673528006954954 )
( 17.333084395435453 3.1403345914874143 0.0656145723576335 )
( 17.312976916521855 3.2743247472936177 0.0650998591948314 )
( 17.29257485362627 3.4166404877706023 0.066644434050715 )
( 17.273809133912152 3.562253820798882 0.0699380802364787 )
( 17.257320896776243 3.70057741691236 0.0744060684289608 )
( 17.243723626148153 3.826526512863013 0.0807359118146965 )
( 17.23190932896798 3.938605411138635 0.0866677893278705 )
( 17.21739287695012 4.039241724830485 0.0924540079061021 )
( 17.20283258930471 4.139994898290819 0.099166552311165 )
( 17.196600776939093 4.24370325760158 0.1062077317971345 )
( 17.39621816238655 2.0899930505160733 0.1076569982020148 )
( 17.34303287326904 2.1709380244098044 0.1042510014817051 )
( 17.294167188182815 2.32519822707928 0.0934802812169972 )
( 17.24086881553677 2.488742560814487 0.0797967925584195 )
( 17.185274313956672 2.612785794290977 0.0698619339889462 )
( 17.135699537220713 2.733388130146875 0.0620522036629789 )
( 17.085084454738695 2.861740237021162 0.0562455110529446 )
( 17.031159993254928 2.99147794159074 0.0542695073250647 )
( 16.985127352745078 3.1253429871653573 0.0549714145250697 )
( 16.941987189413467 3.2683993189004568 0.0579044433706628 )
( 16.893613322294808 3.4194098179488277 0.0634350363565604 )
( 16.85313697444794 3.5748814108279494 0.0719485604983006 )
( 16.818017413125872 3.729230387048835 0.0822542087815459 )
( 16.78015636728864 3.87632626622458 0.0929982318425774 )
( 16.74314587169653 4.0025340204720985 0.1029773245836311 )
( 16.70880361411801 4.110756099899998 0.1112900543153901 )
( 16.674975155205626 4.208829731455704 0.1186375110981055 )
( 16.639051824603197 4.308188211394781 0.1252595599228476 )
( 16.60777567434045 4.417980874343293 0.1309950843456578 )
( 17.25719770198967 2.100703956035307 0.1074566188630527 )
( 17.183347409026805 2.192036095295198 0.0977480539411709 )
( 17.10551058565396 2.3578695855166014 0.0806226234238143 )
( 17.019429443565944 2.524451354701035 0.0652138619209323 )
( 16.935265373787313 2.654080529247605 0.0554469720772147 )
( 16.85673220704342 2.7823571813580408 0.0494494814103609 )
( 16.77447906933622 2.919767635116885 0.0472341476535665 )
( 16.693762675277426 3.060585838225593 0.0488601594055767 )
( 16.622197815553985 3.2024926131054934 0.0548684137505666 )
( 16.551954345482095 3.353975192412892 0.0629704468254176 )
( 16.481758993855305 3.5190686853810806 0.0736420039036663 )
( 16.41823869276847 3.6859877101936234 0.08676966480479 )
( 16.35770026403433 3.8470683221932815 0.1002628076912217 )
( 16.295617268911727 3.99751571028634 0.1120583850827834 )
( 16.233206858739937 4.121299521361822 0.1207244271201246 )
( 16.17237870714972 4.232492040200108 0.1272623979732456 )
( 16.114725684597882 4.338533657892618 0.132305565809655 )
( 16.058588781820955 4.444794599093367 0.1359759535723732 )
( 16.00398281842702 4.563637296741153 0.1380727056577324 )
( 17.114020298787377 2.0995299141427526 0.1023037629343574 )
( 17.01658379141604 2.2009324123078886 0.0876470690432438 )
( 16.906720045099092 2.3801560773140062 0.0663526530210839 )
( 16.79300146367052 2.5488244833484 0.0513344204294228 )
( 16.685674589497314 2.6816671146446347 0.0442662265040949 )
( 16.584352870171486 2.8166809941978657 0.0420255366425567 )
( 16.48157435401231 2.957495443082922 0.0442564586576893 )
( 16.37772612253819 3.1032877062140884 0.0496169618396128 )
( 16.27544285925444 3.2534813913449114 0.0597634886442293 )
( 16.177057698334718 3.418581631599838 0.0726341296415842 )
( 16.08708542987015 3.5909263200327977 0.0859622965036142 )
( 15.996192558341807 3.762582169999847 0.098803954027061 )
( 15.909521935778878 3.9295484689215545 0.111259641870324 )
( 15.82766472067301 4.080567512146716 0.1206947918354675 )
( 15.742686480529771 4.207464323478719 0.1262031944497126 )
( 15.663148456745224 4.319544882451378 0.1295286714187703 )
( 15.58567569800699 4.427971670244013 0.1310362128041818 )
( 15.509243738418345 4.537928049627493 0.1311132493277312 )
( 15.43484813653182 4.661522352640062 0.1296398516274879 )
( 16.9593020495675 2.090926130972111 0.0932827706504415 )
( 16.839416816378073 2.203067581408572 0.0753934327029141 )
( 16.704198238911257 2.3900867255187217 0.0537509410627809 )
( 16.5678137550151 2.5584315771192845 0.039935988327564 )
( 16.441152594666324 2.693556523866203 0.0358685478429283 )
( 16.316646197164463 2.831729529737015 0.0380586752417531 )
( 16.19347867462401 2.9780180182668747 0.0440525610422522 )
( 16.07025736354445 3.129119997038896 0.0536377558087578 )
( 15.94391305654943 3.28394471936298 0.0666982307756093 )
( 15.828689042421953 3.454580341770381 0.0809343395837056 )
( 15.716452290258024 3.633083264712569 0.0943216405508768 )
( 15.599593095307425 3.811753130378533 0.1058016729567727 )
( 15.49149208204332 3.979176977610329 0.1146703466798752 )
( 15.3886429401575 4.12885589536335 0.1202562076714787 )
( 15.284253831449345 4.260997341258617 0.1229525602309152 )
( 15.185236672001029 4.3723599837582166 0.1237009351467761 )
( 15.089907149920656 4.480015048545907 0.1227955682888813 )
( 14.99397287316728 4.595804381600545 0.1200733987396033 )
( 14.900596864004267 4.724081351379833 0.1155872500865529 )
( 16.804770069401155 2.077956212681042 0.0818849616763761 )
( 16.664859372389326 2.194932718928197 0.0623478532777022 )
( 16.509379621980912 2.384017268750407 0.0430794955116681 )
( 16.353394250310146 2.5523632091573565 0.0327681715098779 )
( 16.20621369329251 2.6912436574977936 0.0316088150124896 )
( 16.06198234317515 2.834528082203638 0.0366284840187207 )
( 15.91900633148766 2.9856511676088577 0.0469804137876056 )
( 15.778802994214695 3.1375109779884918 0.0594869661822702 )
( 15.63315363096181 3.295223623097423 0.0723085129866208 )
( 15.498941512660886 3.47265026074824 0.0858191079729021 )
( 15.362757776241065 3.65696590888887 0.0983869367045033 )
( 15.2267895514609 3.840899818539425 0.1084552016989813 )
( 15.100020855337586 4.0102054804739335 0.1136678307406379 )
( 14.973043393362705 4.155245805020257 0.1152892258442915 )
( 14.854009581200032 4.281666452857904 0.1151741003204901 )
( 14.737367389536448 4.394850284186275 0.1132451087901878 )
( 14.623657901813823 4.50768837520852 0.1101822055156475 )
( 14.511071933629468 4.630486314633568 0.1055884858802139 )
( 14.401056997430464 4.764674518230046 0.0994893844496311 )
( 16.6519725547532 2.05438371833757 0.0693642902483575 )
( 16.492103612921145 2.172011599701033 0.0500015902614954 )
( 16.31835464308054 2.364093647031333 0.0336673639447245 )
( 16.148838182724692 2.532996626482373 0.0273468474662971 )
( 15.983353132605368 2.6774401110144206 0.0299874677578088 )
( 15.825070885876002 2.8222218344769106 0.0377180831399688 )
( 15.668169140394207 2.9716810364276967 0.0502915228954513 )
( 15.513165646747847 3.1302606303879035 0.0637583031063472 )
( 15.352876407123638 3.295256503328435 0.0761902827414306 )
( 15.189671366917986 3.473969508525395 0.0883871145385084 )
( 15.03201393112403 3.661961661924293 0.0985205394644897 )
( 14.88170158223758 3.846530140517101 0.1060182956631799 )
( 14.73265649073385 4.017499963933563 0.1088034771529246 )
( 14.58653937388952 4.163090611573463 0.107913394851359 )
( 14.45311149585773 4.286195313600448 0.1056266253203183 )
( 14.319551780153654 4.4033291312399925 0.1016267212280934 )
( 14.187568930340008 4.519762686260369 0.0967587603106029 )
( 14.057982300845543 4.645875834217613 0.0914035586919358 )
( 13.929328493207862 4.786034832820119 0.0849330962803608 )
( 16.49850039589784 2.0282812184320536 0.0566715670221655 )
( 16.32392503096327 2.153140371462728 0.0386443557860485 )
( 16.13577169093173 2.3461234141830944 0.0253886439453052 )
( 15.95433081680049 2.5086151037758584 0.0231378624771933 )
( 15.778699057422148 2.656208471745825 0.0294168291977254 )
( 15.60822646969866 2.7980673411876347 0.0398143627878458 )
( 15.43315675816854 2.9434045762802867 0.0524736905679742 )
( 15.255928709632505 3.1054077819404053 0.0664377859875979 )
( 15.081754499997489 3.272590531091881 0.0793066540054521 )
( 14.901521386446335 3.45341102162608 0.0895019060566817 )
( 14.727422613680336 3.648507322098568 0.0967740108972185 )
( 14.561189954986917 3.837458431893943 0.1011462506364445 )
( 14.39373799765825 4.005896169756043 0.1021104489882089 )
( 14.234355373915994 4.152807248279916 0.0998790561100482 )
( 14.083167288290158 4.278411344783313 0.0962512931140472 )
( 13.930513770227778 4.395921804868711 0.0914452178513543 )
( 13.77733182021148 4.514067087092022 0.0855944625152059 )
( 13.629059691165036 4.642771633821418 0.0791556511126577 )
( 13.48427845954382 4.789928029100071 0.0716175000509403 )
( 16.35762358041042 2.001334867254376 0.0452528066671516 )
( 16.175030571846705 2.131777811054812 0.0297203771971285 )
( 15.968107372837157 2.322704128611133 0.0200452347606073 )
( 15.777155389224555 2.4777683492925924 0.020982659309227 )
( 15.59122874565977 2.622822485521884 0.0294690875714207 )
( 15.404259972131442 2.763996555169355 0.0413392958740154 )
( 15.213495965690456 2.9057246164897426 0.0540741874102577 )
( 15.021167351567616 3.062778215872511 0.0681966409498978 )
( 14.830205222812811 3.235672702889333 0.080595174301806 )
( 14.638314280812416 3.421590805068633 0.0885999250940285 )
( 14.448073794964202 3.618435001012334 0.0936774247925473 )
( 14.260297249654126 3.81476344174227 0.0961291756617149 )
( 14.081257334398956 3.982052229942026 0.095456692744563 )
( 13.908913828750997 4.129423031021448 0.0921844648974259 )
( 13.73584831169501 4.258954196208176 0.0875707306123294 )
( 13.56084102518863 4.37667224361931 0.0815943911830499 )
( 13.389032215475604 4.497992272764644 0.0746491200098055 )
( 13.226915242033074 4.631963229375034 0.0670862880987724 )
( 13.066674407292028 4.787874363247199 0.0585956682582441 )
( 16.22299763646598 1.969316765345195 0.0344603007226202 )
( 16.030157008552305 2.102506951772196 0.0217489306259692 )
( 15.810607812918192 2.2924499841275767 0.0165161218189594 )
( 15.611454604687989 2.439848560951528 0.0203480297715644 )
( 15.413717025705653 2.5776755454867204 0.0303046290049677 )
( 15.211534414187224 2.719212741689159 0.0425744595077988 )
( 15.013146710888975 2.8664601526305864 0.0558463657411651 )
( 14.808713121983184 3.025377456420989 0.0691996371106515 )
( 14.602125516360584 3.200555427142026 0.0797544845916891 )
( 14.395389557048974 3.386604477326173 0.0862400389486196 )
( 14.188343103779392 3.5816927009367245 0.0899150237436101 )
( 13.982250924017784 3.775722221046104 0.090952260757211 )
( 13.785137456713016 3.948053652375416 0.0887319411076502 )
( 13.593830457715768 4.102945930202957 0.0841611684436348 )
( 13.399336942926002 4.234173986318891 0.0783666902135993 )
( 13.208425017807276 4.350457919497903 0.0713197326299949 )
( 13.025636484354376 4.474974933126902 0.0633278584790972 )
( 12.850915825223074 4.620414205006978 0.0557697546047707 )
( 12.676769291849482 4.787842416721446 0.0484181856415265 )
( 16.092129438971256 1.9282356013446176 0.02434920311988 )
( 15.890906677077243 2.0644336095353224 0.0145267290604442 )
( 15.66784670130076 2.252819895448928 0.0134625141710916 )
( 15.458667687668177 2.398533665907588 0.0197659378131913 )
( 15.251751652129885 2.537092001422091 0.0311502091294292 )
( 15.03998633329836 2.6786171860188484 0.0442684285011946 )
( 14.82972987830747 2.826701635029199 0.0574623470847468 )
( 14.609510955494466 2.9839496132576264 0.06920988533469 )
( 14.387358219308783 3.15531740589694 0.0779005840325492 )
( 14.168362361556518 3.3447644929483262 0.0833732888769889 )
( 13.94412524003294 3.5471437823015437 0.0859961845124016 )
( 13.72173632021495 3.7392424555894177 0.0853303237021205 )
( 13.502025289720876 3.913361499421169 0.0814585658743666 )
( 13.285979300362856 4.070411030203041 0.0756206417382218 )
( 13.078900455102776 4.197893774646677 0.0690436551695993 )
( 12.881893954085628 4.317481467465609 0.0620491967836783 )
( 12.687789199887035 4.4510452422649855 0.0545366442328663 )
( 12.495844935446444 4.606155978345706 0.0482440645529303 )
( 12.300380203980009 4.787760780494888 0.043527198922778 )
( 15.972167190638492 1.8780302446012296 0.0167908937262245 )
( 15.769934891519611 2.0168595037947625 0.0106196595582102 )
( 15.537774438671622 2.205350789261093 0.0119562561432057 )
( 15.319613563120148 2.350631911123202 0.0194663288156684 )
( 15.10206363312704 2.490351621863859 0.0321238740882691 )
( 14.88390518399549 2.6283741309692648 0.0461276224483475 )
( 14.661617042055434 2.774293739194148 0.058361107895068 )
( 14.43307602817538 2.9304911417663155 0.0680770839736822 )
( 14.195232874676387 3.100615870755121 0.075255039972529 )
( 13.957191385848787 3.293299693899664 0.0801025836458212 )
( 13.715050248919066 3.500427483878633 0.0811953790239898 )
( 13.471608200398762 3.699845053547495 0.0790916731990953 )
( 13.234011276518888 3.8781562517879538 0.074677364863388 )
( 13.004396927192891 4.028950913793821 0.0680345091695178 )
( 12.785928698279442 4.1558943704258615 0.0609972970096242 )
( 12.57427797052259 4.286500994543768 0.0546176507478479 )
( 12.365588873347823 4.435151042258805 0.0488533131190437 )
( 12.150151790995327 4.595115110179308 0.0446435194890819 )
( 11.9246697120852 4.78393201410459 0.0417004680315279 )
( 15.86513086936022 1.827923711848284 0.0106700663776977 )
( 15.65715828047613 1.968990805735313 0.0078873022169065 )
( 15.407365799419397 2.159886723743484 0.0113329970856761 )
( 15.181663711520985 2.298557373697282 0.0202953196882756 )
( 14.959404209032629 2.433729482532055 0.0336432376480013 )
( 14.736630473785455 2.5701183770116254 0.0467709263539454 )
( 14.50279644016164 2.7140306573307025 0.0576917549617981 )
( 14.26089738069663 2.8730791381843352 0.0665064900788265 )
( 14.012657541646831 3.043727251215877 0.0731502950017444 )
( 13.758203900594486 3.234564067079587 0.0768422628477081 )
( 13.494425554021008 3.445532148372835 0.0762617601967964 )
( 13.22831276756262 3.6484871099702927 0.0731094214651199 )
( 12.973252234818952 3.8319734622651063 0.0681216566601527 )
( 12.7354039295223 3.982497305058753 0.0611443254038608 )
( 12.507476453874084 4.113283682830009 0.0547560688729991 )
( 12.280190689638724 4.252996508670176 0.0493729382250971 )
( 12.046952261111636 4.410565709370891 0.0453446758601484 )
( 11.804627868304207 4.58455786046363 0.0424061018527848 )
( 11.57341365790841 4.797886100961276 0.0383518689096109 )
( 15.76731560256396 1.7802717865789202 0.004618713565518 )
( 15.552081252189703 1.921169944423863 0.0039857187309525 )
( 15.29124142455102 2.109551017367924 0.0100759643628671 )
( 15.05704458323576 2.2404223666099807 0.0212222059487642 )
( 14.829605165064354 2.3676144460941275 0.0344193945441439 )
( 14.599738735953451 2.5092406335184703 0.0463949965918283 )
( 14.35623199525127 2.6500687497120867 0.0561417413583682 )
( 14.097722221051129 2.8042564486245314 0.0644509343051718 )
( 13.835282417330305 2.981350478414212 0.0710744748774785 )
( 13.56533799304556 3.171701719465412 0.0727539903152672 )
( 13.27695952343686 3.3896112557015905 0.0710374896666019 )
( 12.988002332257214 3.5998716525478827 0.06724417890553 )
( 12.72469448839044 3.7791491204114074 0.0614850413242052 )
( 12.482937583488171 3.930357826777879 0.0559330394659065 )
( 12.243312879907185 4.06953314072634 0.0510163097440706 )
( 11.996069176618672 4.217184437880662 0.0462571391263127 )
( 11.73511088059784 4.382624655195722 0.0434659884885515 )
( 11.476313187614512 4.581362538395218 0.0392663459544938 )
( 11.272570872643769 4.846742990911295 0.0334555184264022 )
( 15.67940373894634 1.731712914384263 -5.876314483405583e-05 )
( 15.452188059921731 1.869249846179995 0.0010579443116012 )
( 15.18586972938919 2.056300576332566 0.0094868549870758 )
( 14.950142107138646 2.1827396749867414 0.0219447079198212 )
( 14.714738186433625 2.306530268699728 0.0350646991035945 )
( 14.471340228563816 2.446823041807865 0.046501150371942 )
( 14.215513734277865 2.582265800800083 0.0555189295539214 )
( 13.951451722527604 2.7350889719438705 0.0625245667322495 )
( 13.673161155132416 2.916585371536446 0.067625245069392 )
( 13.37986012063161 3.104416433493062 0.0683645281305225 )
( 13.079796067661215 3.3195880201313974 0.0662249280995189 )
( 12.776939974065836 3.545340548821206 0.0621706591475295 )
( 12.50284163564284 3.727190663269916 0.0575934091532891 )
( 12.24814438868151 3.876171648461997 0.0533190382112157 )
( 11.987163218728549 4.023885652460091 0.0482554759903291 )
( 11.709340779683105 4.177681109292435 0.0440218723408978 )
( 11.431462120965326 4.361162511309234 0.0403212323236837 )
( 11.187556196840974 4.600210128749872 0.0343682878902067 )
( 11.024913314302324 4.922021685643046 0.0306256670588621 )
( 15.594958520037943 1.6811525314827305 -0.0034217855371648 )
( 15.360775666995128 1.81487456217356 -0.000453021233784 )
( 15.088756141915804 1.996910019147182 0.0095180556768677 )
( 14.85257187686222 2.1194045979150857 0.0221894469817004 )
( 14.611069636617156 2.2458116217558435 0.0349793409009697 )
( 14.355349616412973 2.3835817041254983 0.0456949850592019 )
( 14.089769551199533 2.509488755391628 0.0541716100327577 )
( 13.814944443747768 2.6652050726697123 0.0603091338025774 )
( 13.51903724482636 2.8516946952397766 0.0640841525568579 )
( 13.208457295197388 3.04387613347179 0.0643996569662615 )
( 12.889664881734085 3.2536965419390533 0.0621331137047971 )
( 12.57309299784121 3.4713066742865264 0.0589278952542153 )
( 12.288163213208636 3.660217727445496 0.0553882534157262 )
( 12.013074983572874 3.819859510272481 0.0511139485948758 )
( 11.7267551551089 3.9677950244164215 0.0465787403493315 )
( 11.430458802578904 4.131380017903908 0.0427247481128493 )
( 11.149287519404954 4.3447025243983255 0.0371554065987165 )
( 10.940814017205158 4.639121639786064 0.0310134695927982 )
( 10.780829869012967 4.996947851779408 0.0287388017513412 )
( 15.517651449142868 1.6278138697454303 -0.006437850297546 )
( 15.279510129590834 1.756769602264824 -0.0016840632096366 )
( 14.997382652476189 1.9301749611879568 0.0098241524911759 )
( 14.760807748774242 2.0529196717931826 0.0222313091256642 )
( 14.51246258658724 2.1774637659837257 0.0338594010384454 )
( 14.243332394855363 2.314413298179519 0.0445363523858613 )
( 13.9778347480814 2.4409629982275125 0.05273167335044 )
( 13.689046973617286 2.589741281128308 0.058007480456285 )
( 13.372204434655794 2.777290508618087 0.0609174526127585 )
( 13.043150769334314 2.978371102010728 0.0605811035819197 )
( 12.70139758339418 3.1931090121401278 0.0584836354882583 )
( 12.378792990530224 3.4017723130065 0.0557858144661531 )
( 12.07625867621805 3.5872539921118847 0.0517864620785754 )
( 11.776222585368291 3.755458223350516 0.0483023294198792 )
( 11.476023856126805 3.9131566111345255 0.0455897526653894 )
( 11.17481724043064 4.101436186109008 0.0419908955570671 )
( 10.903006490973292 4.356090070031635 0.035266347999588 )
( 10.714037334150287 4.694724422959965 0.0291642057431232 )
( 10.44987275960323 5.020291602481701 0.0254010095443543 )
( 15.45294971987038 1.571872130107643 -0.0090022262101139 )
( 15.204091792935005 1.6928378008988871 -0.0034275409632224 )
( 14.91320744064834 1.8609493845841172 0.0096275414890672 )
( 14.672326750890306 1.983981517838741 0.0221511945672321 )
( 14.41851209886066 2.1083691273817373 0.0329264123989943 )
( 14.140689759320924 2.24770712625486 0.0432614048399498 )
( 13.863478807789091 2.3744656246985745 0.0511380966984951 )
( 13.567160315623129 2.515656136428051 0.0561336374957732 )
( 13.23889437657029 2.697113950886501 0.0580990105007578 )
( 12.888668721521718 2.896835694587247 0.0569644763502094 )
( 12.530537431170526 3.121096883743694 0.0549671625112076 )
( 12.19789681983572 3.3371723829423354 0.0518897822020356 )
( 11.872522306356537 3.519355012267814 0.0477681637859078 )
( 11.552976758833648 3.685335127193583 0.0449734841912091 )
( 11.236318100391005 3.86998810637016 0.0437907207074129 )
( 10.931152453191295 4.088560397722416 0.0397514146942217 )
( 10.681531614376317 4.382862779738278 0.0320780803724592 )
( 10.448175023795107 4.7433416478869725 0.0291171427284254 )
( 9.985628540665989 4.967176732005005 0.0231842272221043 )
( 15.389246346020975 1.5099503178499123 -0.0115064787142319 )
( 15.13788909215356 1.6301310804902158 -0.0056331924712003 )
( 14.843968603836323 1.792110799937556 0.0078520035354317 )
( 14.592287401168194 1.9072706446707597 0.020734761719932 )
( 14.332534442689065 2.0337583090532427 0.0320286104887424 )
( 14.050459047599793 2.177560075658706 0.0418055270787975 )
( 13.759070488215116 2.300888004272945 0.04890311669398 )
( 13.455249011368744 2.4367623827136424 0.053502902136978 )
( 13.108381570487628 2.618635782887138 0.0553665555164164 )
( 12.74164509340117 2.819490508904625 0.0542766106943722 )
( 12.370060315963777 3.0439361880707185 0.0518773454339655 )
( 12.013431683103562 3.265324698634449 0.0484380918544512 )
( 11.677675737783485 3.455442679387205 0.0456336389303935 )
( 11.352062470694309 3.623879953953671 0.0439030990239031 )
( 11.017237990809866 3.829371347156812 0.041446063658876 )
( 10.703058583639464 4.084259421762487 0.0355120948368103 )
( 10.46077261682389 4.412154059762699 0.0303291498535784 )
( 10.133230217659053 4.761741686680484 0.0291096290579965 )
( 9.360219912205595 4.806394380071538 0.0211491937322965 )
( 15.329098363385976 1.446667795277956 -0.014268462869552 )
( 15.07701380460826 1.568353198545725 -0.0067784537005106 )
( 14.779844663724065 1.7278177267600243 0.0068661044893765 )
( 14.523701087910531 1.8390646393828671 0.0193322973369341 )
( 14.253357178914984 1.9625201438180515 0.031438950861558 )
( 13.956344702491563 2.0966439662086787 0.0411318179088749 )
( 13.655851711099793 2.219714529028591 0.0469123850125335 )
( 13.345572904020989 2.3538992608916 0.0502012954440309 )
( 12.974059869572743 2.5370624806954982 0.0523193444847971 )
( 12.591996211528928 2.745968324729436 0.0520576941112384 )
( 12.217306107352316 2.9665968874785613 0.0496806915507337 )
( 11.850860948396384 3.190246861854741 0.0465735478878172 )
( 11.502452998126053 3.391083045776845 0.044802934925524 )
( 11.15224788060692 3.569196757348115 0.0441558132263486 )
( 10.809373690788858 3.786630100975808 0.0409456869942918 )
( 10.497677133162217 4.07761226830111 0.0347589130265084 )
( 10.20785451034614 4.434251033680046 0.0305513926403886 )
( 9.794604090954271 4.752353081401474 0.0263611160657455 )
( 8.51900961508106 4.489799722147279 0.0191859251398067 )
( 15.275936170675957 1.39007109553199 -0.0162640839202546 )
( 15.01796122442292 1.5078655785923256 -0.0070300201995997 )
( 14.717246002755632 1.6629996454128622 0.0067692535455625 )
( 14.461052194700205 1.7744036500894729 0.018936304935005 )
( 14.180450486137108 1.8922168776297863 0.0304703719246519 )
( 13.873787057730974 2.016155394335139 0.0395661512176664 )
( 13.56428157723068 2.144586581591563 0.0450263284149827 )
( 13.238290168882688 2.286431841550938 0.0483434599261372 )
( 12.847714205297189 2.463155285016638 0.0502196975614044 )
( 12.44568424913593 2.674202853696237 0.0500051033655481 )
( 12.064370627154958 2.890441289424353 0.0481044568295836 )
( 11.695838844609687 3.1021337039754653 0.0451008054364137 )
( 11.330660151001254 3.3044320025043423 0.0442895954660523 )
( 10.958354467770732 3.502139941021826 0.0428493372202348 )
( 10.605210984499818 3.744563802362724 0.0405352500548874 )
( 10.28710229831894 4.066050418742421 0.0377836946614802 )
( 9.921736785797888 4.4337523421546745 0.0330651006882473 )
( 9.26828807630672 4.626041212426246 0.0275983293614838 )
( 7.671578923149369 4.136216430223597 0.0209925097852318 )
( 15.22953488810974 1.330592135687594 -0.0177364983488005 )
( 14.96708303857577 1.4475116448865903 -0.007748247183508 )
( 14.65763976687156 1.5989966445774697 0.0061581906784372 )
( 14.3976602555375 1.7046537510102835 0.0179779176293762 )
( 14.111808561482334 1.8227245634821976 0.0289579634777715 )
( 13.80513969492916 1.9492054104878225 0.0377336116973682 )
( 13.491820612911782 2.077040647679799 0.0433770142226266 )
( 13.143483168129269 2.2172588523128347 0.0468348674376909 )
( 12.741374569525298 2.3925337164303566 0.048293284464621 )
( 12.330716677404109 2.601657315797295 0.0484366217580676 )
( 11.931135781324508 2.816429021804183 0.0465513202877717 )
( 11.5371473142227 3.020363172613729 0.0434363732014796 )
( 11.151763243623344 3.217907270166933 0.0416670176193811 )
( 10.768349672843796 3.4295156130597526 0.0388645402561532 )
( 10.40880978559334 3.7041147435847135 0.0373699387302624 )
( 10.066464573472404 4.062719480766527 0.0359181226311964 )
( 9.630882149643826 4.417293327581676 0.0336373430824201 )
( 8.658068820389323 4.411488378507215 0.0306431576424727 )
( 6.920277555059098 3.7989815684779566 0.0213723039075855 )
( 15.188573787575232 1.2679495942004138 -0.0190889234885601 )
( 14.92572769508481 1.3847612076491598 -0.0087144387581505 )
( 14.607559492077074 1.5358149003273192 0.0051152143159027 )
( 14.338688869452646 1.6362755949946433 0.0167411602681979 )
( 14.044947459887302 1.7503030837844622 0.0277535388506061 )
( 13.734706177008707 1.8767148731673744 0.0362271025602801 )
( 13.41411370098554 1.993807830955581 0.041248946197182 )
( 13.053724148511172 2.132799402876555 0.0450362179229014 )
( 12.652217400214392 2.3182009085098247 0.0465226628838287 )
( 12.233194079639013 2.524983989534153 0.0462750090097242 )
( 11.810720715678674 2.742711117002544 0.0442059419664806 )
( 11.39051010418182 2.9416129392138046 0.0417064919339434 )
( 10.986793225178118 3.1364878957918605 0.0378388908287239 )
( 10.58240167403433 3.3671068719512265 0.034640558104753 )
( 10.210333624856458 3.663449325445781 0.035266633282632 )
( 9.817898014153952 4.039940472555429 0.0329656869139453 )
( 9.2854062711828 4.351359614815647 0.0300934438846524 )
( 8.119577219609585 4.190670135579166 0.0294135018030692 )
( 6.204263691796694 3.442771486075737 0.0197134033806085 )
( 15.152638638110108 1.213716741524939 -0.0201707327418566 )
( 14.886658303491554 1.3250953549217093 -0.0092161513719116 )
( 14.563019882860658 1.4700791531360649 0.0043456906274476 )
( 14.287271781612258 1.5694549882781017 0.0156854773831531 )
( 13.985687639892202 1.6768343764080502 0.0267696919588957 )
( 13.67113189265254 1.7948884365647586 0.0340542050296308 )
( 13.336549031996745 1.9075792861210836 0.0387063099324752 )
( 12.96857985620689 2.054405311745899 0.0434607495767289 )
( 12.566728728027371 2.2432208800164832 0.0451628383728463 )
( 12.126411461147889 2.4440271741283284 0.0438448630723784 )
( 11.68247564102312 2.6534354568241176 0.0423842735009474 )